<?xml version="1.0" encoding="ISO-8859-1"?>
<modeling>
 <generator>
  <i name="program" type="string">vasp </i>
  <i name="version" type="string">5.4.1  </i>
  <i name="subversion" type="string">24Jun15 (build Nov 09 2015 15:47:38) gamma-only                       parallel </i>
  <i name="platform" type="string">Beskow </i>
  <i name="date" type="string">2017 06 17 </i>
  <i name="time" type="string">13:40:36 </i>
 </generator>
 <incar>
  <i type="string" name="PREC">accurate</i>
  <i type="string" name="ALGO"> normal</i>
  <i type="int" name="ISPIN">     1</i>
  <i type="int" name="NELM">    60</i>
  <i type="int" name="NELMDL">     0</i>
  <i type="int" name="NELMIN">     8</i>
  <i type="int" name="IBRION">     1</i>
  <i name="EDIFF">      0.00000100</i>
  <i name="EDIFFG">     -0.03000000</i>
  <i type="int" name="NSW">    45</i>
  <i type="int" name="ISIF">     2</i>
  <i name="ENCUT">    400.00000000</i>
  <i name="POTIM">      0.20000000</i>
  <i type="string" name="LREAL"> auto</i>
  <i type="int" name="ISMEAR">     0</i>
  <i name="SIGMA">      0.05000000</i>
  <i type="int" name="LMAXMIX">     6</i>
  <i type="logical" name="LWAVE"> T  </i>
  <i type="logical" name="LCHARG"> T  </i>
  <i type="logical" name="LVTOT"> T  </i>
  <i type="logical" name="LORBIT"> F  </i>
  <i type="logical" name="LASPH"> T  </i>
  <v type="int" name="KPOINT_BSE">    -1     0     0     0</v>
  <i type="int" name="NELM">    60</i>
  <i type="string" name="GGA"> PE</i>
  <i type="logical" name="LASPH"> T  </i>
 </incar>
 <kpoints>
  <generation param="Gamma">
   <v type="int" name="divisions">       1        1        1 </v>
   <v name="usershift">      0.00000000       0.00000000       0.00000000 </v>
   <v name="genvec1">      1.00000000       0.00000000       0.00000000 </v>
   <v name="genvec2">      0.00000000       1.00000000       0.00000000 </v>
   <v name="genvec3">      0.00000000       0.00000000       1.00000000 </v>
   <v name="shift">      0.00000000       0.00000000       0.00000000 </v>
  </generation>
  <varray name="kpointlist" >
   <v>       0.00000000       0.00000000       0.00000000 </v>
  </varray>
  <varray name="weights" >
   <v>       1.00000000 </v>
  </varray>
 </kpoints>
 <parameters>
  <separator name="general" >
   <i type="string" name="SYSTEM">unknown system</i>
   <i type="logical" name="LCOMPAT"> F  </i>
  </separator>
  <separator name="electronic" >
   <i type="string" name="PREC">accura</i>
   <i name="ENMAX">    400.00000000</i>
   <i name="ENAUG">    605.39200000</i>
   <i name="EDIFF">      0.00000100</i>
   <i type="int" name="IALGO">    38</i>
   <i type="int" name="IWAVPR">    11</i>
   <i type="int" name="NBANDS">    16</i>
   <i name="NELECT">      8.00000000</i>
   <i type="int" name="TURBO">     0</i>
   <i type="int" name="IRESTART">     0</i>
   <i type="int" name="NREBOOT">     0</i>
   <i type="int" name="NMIN">     0</i>
   <i name="EREF">      0.00000000</i>
   <separator name="electronic smearing" >
    <i type="int" name="ISMEAR">     0</i>
    <i name="SIGMA">      0.05000000</i>
    <i name="KSPACING">      0.50000000</i>
    <i type="logical" name="KGAMMA"> T  </i>
   </separator>
   <separator name="electronic projectors" >
    <i type="logical" name="LREAL"> T  </i>
    <v name="ROPT">     -0.00025000     -0.00025000</v>
    <i type="int" name="LMAXPAW">  -100</i>
    <i type="int" name="LMAXMIX">     6</i>
    <i type="logical" name="NLSPLINE"> F  </i>
   </separator>
   <separator name="electronic startup" >
    <i type="int" name="ISTART">     1</i>
    <i type="int" name="ICHARG">     0</i>
    <i type="int" name="INIWAV">     1</i>
   </separator>
   <separator name="electronic spin" >
    <i type="int" name="ISPIN">     1</i>
    <i type="logical" name="LNONCOLLINEAR"> F  </i>
    <v name="MAGMOM">      1.00000000      1.00000000      1.00000000</v>
    <i name="NUPDOWN">     -1.00000000</i>
    <i type="logical" name="LSORBIT"> F  </i>
    <v name="SAXIS">      0.00000000      0.00000000      1.00000000</v>
    <i type="logical" name="LSPIRAL"> F  </i>
    <v name="QSPIRAL">      0.00000000      0.00000000      0.00000000</v>
    <i type="logical" name="LZEROZ"> F  </i>
   </separator>
   <separator name="electronic exchange-correlation" >
    <i type="logical" name="LASPH"> T  </i>
    <i type="logical" name="LMETAGGA"> F  </i>
   </separator>
   <separator name="electronic convergence" >
    <i type="int" name="NELM">    60</i>
    <i type="int" name="NELMDL">     0</i>
    <i type="int" name="NELMIN">     8</i>
    <i name="ENINI">    400.00000000</i>
    <separator name="electronic convergence detail" >
     <i type="logical" name="LDIAG"> T  </i>
     <i type="logical" name="LSUBROT"> F  </i>
     <i name="WEIMIN">      0.00100000</i>
     <i name="EBREAK">      0.00000002</i>
     <i name="DEPER">      0.30000000</i>
     <i type="int" name="NRMM">     4</i>
     <i name="TIME">      0.40000000</i>
    </separator>
   </separator>
   <separator name="electronic mixer" >
    <i name="AMIX">      0.40000000</i>
    <i name="BMIX">      1.00000000</i>
    <i name="AMIN">      0.10000000</i>
    <i name="AMIX_MAG">      1.60000000</i>
    <i name="BMIX_MAG">      1.00000000</i>
    <separator name="electronic mixer details" >
     <i type="int" name="IMIX">     4</i>
     <i type="logical" name="MIXFIRST"> F  </i>
     <i type="int" name="MAXMIX">   -45</i>
     <i name="WC">    100.00000000</i>
     <i type="int" name="INIMIX">     1</i>
     <i type="int" name="MIXPRE">     1</i>
     <i type="int" name="MREMOVE">     5</i>
    </separator>
   </separator>
   <separator name="electronic dipolcorrection" >
    <i type="logical" name="LDIPOL"> F  </i>
    <i type="logical" name="LMONO"> F  </i>
    <i type="int" name="IDIPOL">     0</i>
    <i name="EPSILON">      1.00000000</i>
    <v name="DIPOL">   -100.00000000   -100.00000000   -100.00000000</v>
    <i name="EFIELD">      0.00000000</i>
   </separator>
  </separator>
  <separator name="grids" >
   <i type="int" name="NGX">    70</i>
   <i type="int" name="NGY">    70</i>
   <i type="int" name="NGZ">    70</i>
   <i type="int" name="NGXF">   140</i>
   <i type="int" name="NGYF">   140</i>
   <i type="int" name="NGZF">   140</i>
   <i type="logical" name="ADDGRID"> F  </i>
  </separator>
  <separator name="ionic" >
   <i type="int" name="NSW">    45</i>
   <i type="int" name="IBRION">     1</i>
   <i type="int" name="ISIF">     2</i>
   <i name="PSTRESS">      0.00000000</i>
   <i name="EDIFFG">     -0.03000000</i>
   <i type="int" name="NFREE">     0</i>
   <i name="POTIM">      0.20000000</i>
   <i name="SMASS">     -3.00000000</i>
   <i name="SCALEE">      1.00000000</i>
  </separator>
  <separator name="ionic md" >
   <i name="TEBEG">      0.00010000</i>
   <i name="TEEND">      0.00010000</i>
   <i type="int" name="NBLOCK">     1</i>
   <i type="int" name="KBLOCK">    45</i>
   <i type="int" name="NPACO">   256</i>
   <i name="APACO">     16.00000000</i>
  </separator>
  <separator name="symmetry" >
   <i type="int" name="ISYM">     2</i>
   <i name="SYMPREC">      0.00001000</i>
  </separator>
  <separator name="dos" >
   <i type="logical" name="LORBIT"> F  </i>
   <v name="RWIGS">     -1.00000000     -1.00000000</v>
   <i type="int" name="NEDOS">   301</i>
   <i name="EMIN">     10.00000000</i>
   <i name="EMAX">    -10.00000000</i>
   <i name="EFERMI">      0.00000000</i>
  </separator>
  <separator name="writing" >
   <i type="int" name="NWRITE">     2</i>
   <i type="logical" name="LWAVE"> T  </i>
   <i type="logical" name="LCHARG"> T  </i>
   <i type="logical" name="LPARD"> F  </i>
   <i type="logical" name="LVTOT"> T  </i>
   <i type="logical" name="LVHAR"> F  </i>
   <i type="logical" name="LELF"> F  </i>
   <i type="logical" name="LOPTICS"> F  </i>
   <v name="STM">      0.00000000      0.00000000      0.00000000      0.00000000      0.00000000      0.00000000      0.00000000</v>
  </separator>
  <separator name="performance" >
   <i type="int" name="NPAR">    16</i>
   <i type="int" name="NSIM">     4</i>
   <i type="int" name="NBLK">    -1</i>
   <i type="logical" name="LPLANE"> T  </i>
   <i type="logical" name="LSCALAPACK"> T  </i>
   <i type="logical" name="LSCAAWARE"> F  </i>
   <i type="logical" name="LSCALU"> F  </i>
   <i type="logical" name="LASYNC"> F  </i>
   <i type="logical" name="LORBITALREAL"> F  </i>
  </separator>
  <separator name="miscellaneous" >
   <i type="int" name="IDIOT">     3</i>
   <i type="logical" name="LMUSIC"> F  </i>
   <v name="POMASS">     16.00000000      1.00000000</v>
   <v name="DARWINR">      0.00000000      0.00000000</v>
   <v name="DARWINV">      1.00000000      1.00000000</v>
   <i type="logical" name="LCORR"> T  </i>
  </separator>
  <i type="logical" name="GGA_COMPAT"> T  </i>
  <i type="logical" name="LBERRY"> F  </i>
  <i type="int" name="ICORELEVEL">     0</i>
  <i type="logical" name="LDAU"> F  </i>
  <i type="int" name="I_CONSTRAINED_M">     0</i>
  <separator name="electronic exchange-correlation" >
   <i type="string" name="GGA">PE</i>
   <i type="int" name="VOSKOWN">     0</i>
   <i type="logical" name="LHFCALC"> F  </i>
   <i type="string" name="PRECFOCK"></i>
   <i type="logical" name="LSYMGRAD"> F  </i>
   <i type="logical" name="LHFONE"> F  </i>
   <i type="logical" name="LRHFCALC"> F  </i>
   <i type="logical" name="LTHOMAS"> F  </i>
   <i type="logical" name="LMODELHF"> F  </i>
   <i name="ENCUT4O">     -1.00000000</i>
   <i type="int" name="EXXOEP">     0</i>
   <i type="int" name="FOURORBIT">     0</i>
   <i name="AEXX">      0.00000000</i>
   <i name="HFALPHA">      0.00000000</i>
   <i name="MCALPHA">      0.00000000</i>
   <i name="ALDAX">      1.00000000</i>
   <i name="AGGAX">      1.00000000</i>
   <i name="ALDAC">      1.00000000</i>
   <i name="AGGAC">      1.00000000</i>
   <i type="int" name="NKREDX">     1</i>
   <i type="int" name="NKREDY">     1</i>
   <i type="int" name="NKREDZ">     1</i>
   <i type="logical" name="SHIFTRED"> F  </i>
   <i type="logical" name="ODDONLY"> F  </i>
   <i type="logical" name="EVENONLY"> F  </i>
   <i type="int" name="LMAXFOCK">     0</i>
   <i type="int" name="NMAXFOCKAE">     0</i>
   <i type="logical" name="LFOCKAEDFT"> F  </i>
   <i name="HFSCREEN">      0.00000000</i>
   <i name="HFSCREENC">      0.00000000</i>
   <i type="int" name="NBANDSGWLOW">     0</i>
  </separator>
  <separator name="vdW DFT" >
   <i type="logical" name="LUSE_VDW"> F  </i>
   <i name="Zab_VDW">     -0.84910000</i>
   <i name="PARAM1">      0.12340000</i>
   <i name="PARAM2">      1.00000000</i>
   <i name="PARAM3">      0.00000000</i>
  </separator>
  <separator name="model GW" >
   <i type="int" name="MODEL_GW">     0</i>
   <i name="MODEL_EPS0">    200.00000000</i>
   <i name="MODEL_ALPHA">      1.00000000</i>
  </separator>
  <separator name="linear response parameters" >
   <i type="logical" name="LEPSILON"> F  </i>
   <i type="logical" name="LRPA"> F  </i>
   <i type="logical" name="LNABLA"> F  </i>
   <i type="logical" name="LVEL"> F  </i>
   <i type="int" name="KINTER">     0</i>
   <i name="CSHIFT">      0.10000000</i>
   <i name="OMEGAMAX">     -1.00000000</i>
   <i name="DEG_THRESHOLD">      0.00200000</i>
  </separator>
  <separator name="orbital magnetization" >
   <i type="logical" name="NUCIND"> F  </i>
   <v name="MAGPOS">      0.00000000      0.00000000      0.00000000</v>
   <i type="logical" name="LNICSALL"> T  </i>
   <i type="logical" name="ORBITALMAG"> F  </i>
   <i type="logical" name="LMAGBLOCH"> F  </i>
   <i type="logical" name="LCHIMAG"> F  </i>
   <i type="logical" name="LGAUGE"> T  </i>
   <i type="int" name="MAGATOM">     0</i>
   <v name="MAGDIPOL">      0.00000000      0.00000000      0.00000000</v>
   <v name="AVECCONST">      0.00000000      0.00000000      0.00000000</v>
  </separator>
  <separator name="response functions" >
   <i type="logical" name="LADDER"> F  </i>
   <i type="logical" name="LFXC"> F  </i>
   <i type="logical" name="LHARTREE"> T  </i>
   <i type="int" name="IBSE">     0</i>
   <v type="int" name="KPOINT">    -1     0     0     0</v>
   <i type="logical" name="LTCTE"> F  </i>
   <i type="logical" name="LTETE"> F  </i>
   <i type="logical" name="LTRIPLET"> F  </i>
   <i type="logical" name="LFXCEPS"> F  </i>
   <i type="logical" name="LFXHEG"> F  </i>
   <i type="int" name="NATURALO">     0</i>
   <i type="logical" name="L2ORDER"> F  </i>
   <i type="logical" name="LUSEW"> F  </i>
   <i name="ENCUTGW">     -2.00000000</i>
   <i name="ENCUTGWSOFT">     -2.00000000</i>
   <i name="ENCUTLF">     -1.00000000</i>
   <i type="int" name="LMAXMP2">    -1</i>
   <i name="SCISSOR">      0.00000000</i>
   <i type="int" name="NOMEGA">     0</i>
   <i type="int" name="NOMEGAR">     0</i>
   <i type="int" name="NBANDSGW">    -1</i>
   <i type="int" name="NBANDSO">    -1</i>
   <i type="int" name="NBANDSV">    -1</i>
   <i type="int" name="NELM">    60</i>
   <i type="int" name="NELMHF">     1</i>
   <i type="int" name="DIM">     3</i>
   <i type="int" name="ANTIRES">     0</i>
   <i name="OMEGAMAX">    -30.00000000</i>
   <i name="OMEGAMIN">    -30.00000000</i>
   <i name="OMEGATL">   -200.00000000</i>
   <i type="int" name="OMEGAGRID">     0</i>
   <i name="CSHIFT">     -0.10000000</i>
   <i type="logical" name="SELFENERGY"> F  </i>
   <i type="logical" name="LSPECTRAL"> F  </i>
   <i type="logical" name="LSPECTRALGW"> F  </i>
   <i type="logical" name="LSINGLES"> F  </i>
   <i type="logical" name="LFERMIGW"> F  </i>
   <i type="logical" name="ODDONLYGW"> F  </i>
   <i type="logical" name="EVENONLYGW"> F  </i>
   <i type="int" name="NKREDLFX">     1</i>
   <i type="int" name="NKREDLFY">     1</i>
   <i type="int" name="NKREDLFZ">     1</i>
   <i type="int" name="MAXMEM">  1800</i>
   <i type="int" name="TELESCOPE">     0</i>
   <i type="int" name="TAUPAR">     1</i>
   <i type="int" name="OMEGAPAR">    -1</i>
   <i name="LAMBDA">      1.00000000</i>
  </separator>
  <separator name="External order field" >
   <i name="OFIELD_KAPPA">      0.00000000</i>
   <v name="OFIELD_K">      0.00000000      0.00000000      0.00000000</v>
   <i name="OFIELD_Q6_NEAR">      0.00000000</i>
   <i name="OFIELD_Q6_FAR">      0.00000000</i>
   <i name="OFIELD_A">      0.00000000</i>
  </separator>
 </parameters>
 <atominfo>
  <atoms>       3 </atoms>
  <types>       2 </types>
  <array name="atoms" >
   <dimension dim="1">ion</dimension>
   <field type="string">element</field>
   <field type="int">atomtype</field>
   <set>
    <rc><c>O </c><c>   1</c></rc>
    <rc><c>H </c><c>   2</c></rc>
    <rc><c>H </c><c>   2</c></rc>
   </set>
  </array>
  <array name="atomtypes" >
   <dimension dim="1">type</dimension>
   <field type="int">atomspertype</field>
   <field type="string">element</field>
   <field>mass</field>
   <field>valence</field>
   <field type="string">pseudopotential</field>
   <set>
    <rc><c>   1</c><c>O </c><c>     16.00000000</c><c>      6.00000000</c><c>  PAW_PBE O 08Apr2002                   </c></rc>
    <rc><c>   2</c><c>H </c><c>      1.00000000</c><c>      1.00000000</c><c>  PAW_PBE H 15Jun2001                   </c></rc>
   </set>
  </array>
 </atominfo>
 <structure name="initialpos" >
  <crystal>
   <varray name="basis" >
    <v>      10.00000000       0.00000000       0.00000000 </v>
    <v>       0.00000000      10.00000000       0.00000000 </v>
    <v>       0.00000000       0.00000000      10.00000000 </v>
   </varray>
   <i name="volume">   1000.00000000 </i>
   <varray name="rec_basis" >
    <v>       0.10000000       0.00000000       0.00000000 </v>
    <v>       0.00000000       0.10000000       0.00000000 </v>
    <v>       0.00000000       0.00000000       0.10000000 </v>
   </varray>
  </crystal>
  <varray name="positions" >
   <v>       0.50000000       0.50000000       0.52990714 </v>
   <v>       0.50000000       0.57671769       0.47013871 </v>
   <v>       0.50000000       0.42328231       0.47013871 </v>
  </varray>
 </structure>
 <calculation>
  <scstep>
   <time name="dav">    0.01    0.01</time>
   <time name="total">    0.18    0.19</time>
   <energy>
    <i name="alphaZ">      0.22425129 </i>
    <i name="ewald">     56.73997946 </i>
    <i name="hartreedc">   -451.33935951 </i>
    <i name="XCdc">     34.01501067 </i>
    <i name="pawpsdc">    560.38553738 </i>
    <i name="pawaedc">   -562.43983760 </i>
    <i name="eentropy">     -0.00000000 </i>
    <i name="bandstr">   -109.03502889 </i>
    <i name="atom">    457.22046137 </i>
    <i name="e_fr_energy">    -14.22898584 </i>
    <i name="e_wo_entrp">    -14.22898584 </i>
    <i name="e_0_energy">    -14.22898584 </i>
   </energy>
  </scstep>
  <scstep>
   <time name="dav">    0.05    0.05</time>
   <time name="total">    0.25    0.26</time>
   <energy>
    <i name="e_fr_energy">    -14.22898584 </i>
    <i name="e_wo_entrp">    -14.22898584 </i>
    <i name="e_0_energy">    -14.22898584 </i>
   </energy>
  </scstep>
  <scstep>
   <time name="dav">    0.01    0.01</time>
   <time name="total">    0.19    0.20</time>
   <energy>
    <i name="e_fr_energy">    -14.22898584 </i>
    <i name="e_wo_entrp">    -14.22898584 </i>
    <i name="e_0_energy">    -14.22898584 </i>
   </energy>
  </scstep>
  <scstep>
   <time name="dav">    0.01    0.01</time>
   <time name="total">    0.18    0.19</time>
   <energy>
    <i name="e_fr_energy">    -14.22898584 </i>
    <i name="e_wo_entrp">    -14.22898584 </i>
    <i name="e_0_energy">    -14.22898584 </i>
   </energy>
  </scstep>
  <scstep>
   <time name="dav">    0.01    0.01</time>
   <time name="total">    0.24    0.25</time>
   <energy>
    <i name="e_fr_energy">    -14.22898584 </i>
    <i name="e_wo_entrp">    -14.22898584 </i>
    <i name="e_0_energy">    -14.22898584 </i>
   </energy>
  </scstep>
  <scstep>
   <time name="dav">    0.01    0.01</time>
   <time name="total">    0.19    0.20</time>
   <energy>
    <i name="e_fr_energy">    -14.22898584 </i>
    <i name="e_wo_entrp">    -14.22898584 </i>
    <i name="e_0_energy">    -14.22898584 </i>
   </energy>
  </scstep>
  <scstep>
   <time name="dav">    0.00    0.00</time>
   <time name="total">    0.14    0.15</time>
   <energy>
    <i name="e_fr_energy">    -14.22898584 </i>
    <i name="e_wo_entrp">    -14.22898584 </i>
    <i name="e_0_energy">    -14.22898584 </i>
   </energy>
  </scstep>
  <scstep>
   <time name="dav">    0.01    0.01</time>
   <time name="total">    0.15    0.16</time>
   <energy>
    <i name="alphaZ">      0.22425129 </i>
    <i name="ewald">     56.73997946 </i>
    <i name="hartreedc">   -451.33985503 </i>
    <i name="XCdc">     34.01503753 </i>
    <i name="pawpsdc">    560.38633375 </i>
    <i name="pawaedc">   -562.44064175 </i>
    <i name="eentropy">     -0.00000000 </i>
    <i name="bandstr">   -109.03455245 </i>
    <i name="atom">    457.22046137 </i>
    <i name="e_fr_energy">    -14.22898584 </i>
    <i name="e_wo_entrp">    -14.22898584 </i>
    <i name="e_0_energy">    -14.22898584 </i>
   </energy>
  </scstep>
  <structure>
   <crystal>
    <varray name="basis" >
     <v>      10.00000000       0.00000000       0.00000000 </v>
     <v>       0.00000000      10.00000000       0.00000000 </v>
     <v>       0.00000000       0.00000000      10.00000000 </v>
    </varray>
    <i name="volume">   1000.00000000 </i>
    <varray name="rec_basis" >
     <v>       0.10000000       0.00000000       0.00000000 </v>
     <v>       0.00000000       0.10000000       0.00000000 </v>
     <v>       0.00000000       0.00000000       0.10000000 </v>
    </varray>
   </crystal>
   <varray name="positions" >
    <v>       0.50000000       0.50000000       0.52990714 </v>
    <v>       0.50000000       0.57671769       0.47013871 </v>
    <v>       0.50000000       0.42328231       0.47013871 </v>
   </varray>
  </structure>
  <varray name="forces" >
   <v>      -0.00000000       0.00000000      -0.02081926 </v>
   <v>       0.00000000       0.02318519       0.01040963 </v>
   <v>       0.00000000      -0.02318519       0.01040963 </v>
  </varray>
  <varray name="stress" >
   <v>      -1.48826755       0.00000000       0.00000000 </v>
   <v>       0.00000000      -1.15002525       0.00000000 </v>
   <v>       0.00000000       0.00000000      -1.37660809 </v>
  </varray>
  <energy>
   <i name="e_fr_energy">    -14.22898584 </i>
   <i name="e_wo_entrp">    -14.22898584 </i>
   <i name="e_0_energy">     -0.00000000 </i>
  </energy>
  <time name="totalsc">    6.43    6.54</time>
  <eigenvalues>
   <array>
    <dimension dim="1">band</dimension>
    <dimension dim="2">kpoint</dimension>
    <dimension dim="3">spin</dimension>
    <field>eigene</field>
    <field>occ</field>
    <set>
     <set comment="spin 1">
      <set comment="kpoint 1">
       <r>  -25.2080    1.0000 </r>
       <r>  -12.9796    1.0000 </r>
       <r>   -9.2005    1.0000 </r>
       <r>   -7.1292    1.0000 </r>
       <r>   -0.9834    0.0000 </r>
       <r>    0.4975    0.0000 </r>
       <r>    0.7405    0.0000 </r>
       <r>    1.1045    0.0000 </r>
       <r>    1.1490    0.0000 </r>
       <r>    1.3019    0.0000 </r>
       <r>    1.3652    0.0000 </r>
       <r>    2.0558    0.0000 </r>
       <r>    2.2768    0.0000 </r>
       <r>    2.4861    0.0000 </r>
       <r>    2.5294    0.0000 </r>
       <r>    2.5945    0.0000 </r>
      </set>
     </set>
    </set>
   </array>
  </eigenvalues>
  <separator name="orbital magnetization" >
   <v name="MAGDIPOLOUT">      0.00000000      0.00000000      0.00000000</v>
  </separator>
  <dos>
   <i name="efermi">     -6.81493744 </i>
   <total>
    <array>
     <dimension dim="1">gridpoints</dimension>
     <dimension dim="2">spin</dimension>
     <field>energy</field>
     <field>total</field>
     <field>integrated</field>
     <set>
      <set comment="spin 1">
       <r>   -26.5981     0.0000     0.0000 </r>
       <r>   -26.4962     0.0000     0.0000 </r>
       <r>   -26.3943     0.0000     0.0000 </r>
       <r>   -26.2923     0.0000     0.0000 </r>
       <r>   -26.1904     0.0000     0.0000 </r>
       <r>   -26.0884     0.0000     0.0000 </r>
       <r>   -25.9865     0.0000     0.0000 </r>
       <r>   -25.8845     0.0000     0.0000 </r>
       <r>   -25.7826     0.0000     0.0000 </r>
       <r>   -25.6807     0.0000     0.0000 </r>
       <r>   -25.5787     0.0000     0.0000 </r>
       <r>   -25.4768     0.0000     0.0000 </r>
       <r>   -25.3748     0.0000     0.0000 </r>
       <r>   -25.2729     0.6526     0.0665 </r>
       <r>   -25.1709    16.0783     1.7056 </r>
       <r>   -25.0690     2.8872     1.9999 </r>
       <r>   -24.9671     0.0008     2.0000 </r>
       <r>   -24.8651     0.0000     2.0000 </r>
       <r>   -24.7632     0.0000     2.0000 </r>
       <r>   -24.6612     0.0000     2.0000 </r>
       <r>   -24.5593     0.0000     2.0000 </r>
       <r>   -24.4573     0.0000     2.0000 </r>
       <r>   -24.3554     0.0000     2.0000 </r>
       <r>   -24.2535     0.0000     2.0000 </r>
       <r>   -24.1515     0.0000     2.0000 </r>
       <r>   -24.0496     0.0000     2.0000 </r>
       <r>   -23.9476     0.0000     2.0000 </r>
       <r>   -23.8457     0.0000     2.0000 </r>
       <r>   -23.7438     0.0000     2.0000 </r>
       <r>   -23.6418     0.0000     2.0000 </r>
       <r>   -23.5399     0.0000     2.0000 </r>
       <r>   -23.4379     0.0000     2.0000 </r>
       <r>   -23.3360     0.0000     2.0000 </r>
       <r>   -23.2340     0.0000     2.0000 </r>
       <r>   -23.1321     0.0000     2.0000 </r>
       <r>   -23.0302     0.0000     2.0000 </r>
       <r>   -22.9282     0.0000     2.0000 </r>
       <r>   -22.8263     0.0000     2.0000 </r>
       <r>   -22.7243     0.0000     2.0000 </r>
       <r>   -22.6224     0.0000     2.0000 </r>
       <r>   -22.5204     0.0000     2.0000 </r>
       <r>   -22.4185     0.0000     2.0000 </r>
       <r>   -22.3166     0.0000     2.0000 </r>
       <r>   -22.2146     0.0000     2.0000 </r>
       <r>   -22.1127     0.0000     2.0000 </r>
       <r>   -22.0107     0.0000     2.0000 </r>
       <r>   -21.9088     0.0000     2.0000 </r>
       <r>   -21.8068     0.0000     2.0000 </r>
       <r>   -21.7049     0.0000     2.0000 </r>
       <r>   -21.6030     0.0000     2.0000 </r>
       <r>   -21.5010     0.0000     2.0000 </r>
       <r>   -21.3991     0.0000     2.0000 </r>
       <r>   -21.2971     0.0000     2.0000 </r>
       <r>   -21.1952     0.0000     2.0000 </r>
       <r>   -21.0932     0.0000     2.0000 </r>
       <r>   -20.9913     0.0000     2.0000 </r>
       <r>   -20.8894     0.0000     2.0000 </r>
       <r>   -20.7874     0.0000     2.0000 </r>
       <r>   -20.6855     0.0000     2.0000 </r>
       <r>   -20.5835     0.0000     2.0000 </r>
       <r>   -20.4816     0.0000     2.0000 </r>
       <r>   -20.3797     0.0000     2.0000 </r>
       <r>   -20.2777     0.0000     2.0000 </r>
       <r>   -20.1758     0.0000     2.0000 </r>
       <r>   -20.0738     0.0000     2.0000 </r>
       <r>   -19.9719     0.0000     2.0000 </r>
       <r>   -19.8699     0.0000     2.0000 </r>
       <r>   -19.7680     0.0000     2.0000 </r>
       <r>   -19.6661     0.0000     2.0000 </r>
       <r>   -19.5641     0.0000     2.0000 </r>
       <r>   -19.4622     0.0000     2.0000 </r>
       <r>   -19.3602     0.0000     2.0000 </r>
       <r>   -19.2583     0.0000     2.0000 </r>
       <r>   -19.1563     0.0000     2.0000 </r>
       <r>   -19.0544     0.0000     2.0000 </r>
       <r>   -18.9525     0.0000     2.0000 </r>
       <r>   -18.8505     0.0000     2.0000 </r>
       <r>   -18.7486     0.0000     2.0000 </r>
       <r>   -18.6466     0.0000     2.0000 </r>
       <r>   -18.5447     0.0000     2.0000 </r>
       <r>   -18.4427     0.0000     2.0000 </r>
       <r>   -18.3408     0.0000     2.0000 </r>
       <r>   -18.2389     0.0000     2.0000 </r>
       <r>   -18.1369     0.0000     2.0000 </r>
       <r>   -18.0350     0.0000     2.0000 </r>
       <r>   -17.9330     0.0000     2.0000 </r>
       <r>   -17.8311     0.0000     2.0000 </r>
       <r>   -17.7291     0.0000     2.0000 </r>
       <r>   -17.6272     0.0000     2.0000 </r>
       <r>   -17.5253     0.0000     2.0000 </r>
       <r>   -17.4233     0.0000     2.0000 </r>
       <r>   -17.3214     0.0000     2.0000 </r>
       <r>   -17.2194     0.0000     2.0000 </r>
       <r>   -17.1175     0.0000     2.0000 </r>
       <r>   -17.0156     0.0000     2.0000 </r>
       <r>   -16.9136     0.0000     2.0000 </r>
       <r>   -16.8117     0.0000     2.0000 </r>
       <r>   -16.7097     0.0000     2.0000 </r>
       <r>   -16.6078     0.0000     2.0000 </r>
       <r>   -16.5058     0.0000     2.0000 </r>
       <r>   -16.4039     0.0000     2.0000 </r>
       <r>   -16.3020     0.0000     2.0000 </r>
       <r>   -16.2000     0.0000     2.0000 </r>
       <r>   -16.0981     0.0000     2.0000 </r>
       <r>   -15.9961     0.0000     2.0000 </r>
       <r>   -15.8942     0.0000     2.0000 </r>
       <r>   -15.7922     0.0000     2.0000 </r>
       <r>   -15.6903     0.0000     2.0000 </r>
       <r>   -15.5884     0.0000     2.0000 </r>
       <r>   -15.4864     0.0000     2.0000 </r>
       <r>   -15.3845     0.0000     2.0000 </r>
       <r>   -15.2825     0.0000     2.0000 </r>
       <r>   -15.1806     0.0000     2.0000 </r>
       <r>   -15.0786     0.0000     2.0000 </r>
       <r>   -14.9767     0.0000     2.0000 </r>
       <r>   -14.8748     0.0000     2.0000 </r>
       <r>   -14.7728     0.0000     2.0000 </r>
       <r>   -14.6709     0.0000     2.0000 </r>
       <r>   -14.5689     0.0000     2.0000 </r>
       <r>   -14.4670     0.0000     2.0000 </r>
       <r>   -14.3650     0.0000     2.0000 </r>
       <r>   -14.2631     0.0000     2.0000 </r>
       <r>   -14.1612     0.0000     2.0000 </r>
       <r>   -14.0592     0.0000     2.0000 </r>
       <r>   -13.9573     0.0000     2.0000 </r>
       <r>   -13.8553     0.0000     2.0000 </r>
       <r>   -13.7534     0.0000     2.0000 </r>
       <r>   -13.6515     0.0000     2.0000 </r>
       <r>   -13.5495     0.0000     2.0000 </r>
       <r>   -13.4476     0.0000     2.0000 </r>
       <r>   -13.3456     0.0000     2.0000 </r>
       <r>   -13.2437     0.0000     2.0000 </r>
       <r>   -13.1417     0.0000     2.0000 </r>
       <r>   -13.0398     0.8683     2.0885 </r>
       <r>   -12.9379    16.4164     3.7620 </r>
       <r>   -12.8359     2.3338     4.0000 </r>
       <r>   -12.7340     0.0005     4.0000 </r>
       <r>   -12.6320     0.0000     4.0000 </r>
       <r>   -12.5301     0.0000     4.0000 </r>
       <r>   -12.4281     0.0000     4.0000 </r>
       <r>   -12.3262     0.0000     4.0000 </r>
       <r>   -12.2243     0.0000     4.0000 </r>
       <r>   -12.1223     0.0000     4.0000 </r>
       <r>   -12.0204     0.0000     4.0000 </r>
       <r>   -11.9184     0.0000     4.0000 </r>
       <r>   -11.8165     0.0000     4.0000 </r>
       <r>   -11.7145     0.0000     4.0000 </r>
       <r>   -11.6126     0.0000     4.0000 </r>
       <r>   -11.5107     0.0000     4.0000 </r>
       <r>   -11.4087     0.0000     4.0000 </r>
       <r>   -11.3068     0.0000     4.0000 </r>
       <r>   -11.2048     0.0000     4.0000 </r>
       <r>   -11.1029     0.0000     4.0000 </r>
       <r>   -11.0009     0.0000     4.0000 </r>
       <r>   -10.8990     0.0000     4.0000 </r>
       <r>   -10.7971     0.0000     4.0000 </r>
       <r>   -10.6951     0.0000     4.0000 </r>
       <r>   -10.5932     0.0000     4.0000 </r>
       <r>   -10.4912     0.0000     4.0000 </r>
       <r>   -10.3893     0.0000     4.0000 </r>
       <r>   -10.2874     0.0000     4.0000 </r>
       <r>   -10.1854     0.0000     4.0000 </r>
       <r>   -10.0835     0.0000     4.0000 </r>
       <r>    -9.9815     0.0000     4.0000 </r>
       <r>    -9.8796     0.0000     4.0000 </r>
       <r>    -9.7776     0.0000     4.0000 </r>
       <r>    -9.6757     0.0000     4.0000 </r>
       <r>    -9.5738     0.0000     4.0000 </r>
       <r>    -9.4718     0.0000     4.0000 </r>
       <r>    -9.3699     0.0000     4.0000 </r>
       <r>    -9.2679     0.5540     4.0565 </r>
       <r>    -9.1660    15.8371     5.6709 </r>
       <r>    -9.0640     3.2267     5.9999 </r>
       <r>    -8.9621     0.0011     6.0000 </r>
       <r>    -8.8602     0.0000     6.0000 </r>
       <r>    -8.7582     0.0000     6.0000 </r>
       <r>    -8.6563     0.0000     6.0000 </r>
       <r>    -8.5543     0.0000     6.0000 </r>
       <r>    -8.4524     0.0000     6.0000 </r>
       <r>    -8.3504     0.0000     6.0000 </r>
       <r>    -8.2485     0.0000     6.0000 </r>
       <r>    -8.1466     0.0000     6.0000 </r>
       <r>    -8.0446     0.0000     6.0000 </r>
       <r>    -7.9427     0.0000     6.0000 </r>
       <r>    -7.8407     0.0000     6.0000 </r>
       <r>    -7.7388     0.0000     6.0000 </r>
       <r>    -7.6368     0.0000     6.0000 </r>
       <r>    -7.5349     0.0000     6.0000 </r>
       <r>    -7.4330     0.0000     6.0000 </r>
       <r>    -7.3310     0.0000     6.0000 </r>
       <r>    -7.2291     0.0464     6.0047 </r>
       <r>    -7.1271    10.2182     7.0464 </r>
       <r>    -7.0252     9.3223     7.9967 </r>
       <r>    -6.9233     0.0320     8.0000 </r>
       <r>    -6.8213     0.0000     8.0000 </r>
       <r>    -6.7194     0.0000     8.0000 </r>
       <r>    -6.6174     0.0000     8.0000 </r>
       <r>    -6.5155     0.0000     8.0000 </r>
       <r>    -6.4135     0.0000     8.0000 </r>
       <r>    -6.3116     0.0000     8.0000 </r>
       <r>    -6.2097     0.0000     8.0000 </r>
       <r>    -6.1077     0.0000     8.0000 </r>
       <r>    -6.0058     0.0000     8.0000 </r>
       <r>    -5.9038     0.0000     8.0000 </r>
       <r>    -5.8019     0.0000     8.0000 </r>
       <r>    -5.6999     0.0000     8.0000 </r>
       <r>    -5.5980     0.0000     8.0000 </r>
       <r>    -5.4961     0.0000     8.0000 </r>
       <r>    -5.3941     0.0000     8.0000 </r>
       <r>    -5.2922     0.0000     8.0000 </r>
       <r>    -5.1902     0.0000     8.0000 </r>
       <r>    -5.0883     0.0000     8.0000 </r>
       <r>    -4.9863     0.0000     8.0000 </r>
       <r>    -4.8844     0.0000     8.0000 </r>
       <r>    -4.7825     0.0000     8.0000 </r>
       <r>    -4.6805     0.0000     8.0000 </r>
       <r>    -4.5786     0.0000     8.0000 </r>
       <r>    -4.4766     0.0000     8.0000 </r>
       <r>    -4.3747     0.0000     8.0000 </r>
       <r>    -4.2727     0.0000     8.0000 </r>
       <r>    -4.1708     0.0000     8.0000 </r>
       <r>    -4.0689     0.0000     8.0000 </r>
       <r>    -3.9669     0.0000     8.0000 </r>
       <r>    -3.8650     0.0000     8.0000 </r>
       <r>    -3.7630     0.0000     8.0000 </r>
       <r>    -3.6611     0.0000     8.0000 </r>
       <r>    -3.5592     0.0000     8.0000 </r>
       <r>    -3.4572     0.0000     8.0000 </r>
       <r>    -3.3553     0.0000     8.0000 </r>
       <r>    -3.2533     0.0000     8.0000 </r>
       <r>    -3.1514     0.0000     8.0000 </r>
       <r>    -3.0494     0.0000     8.0000 </r>
       <r>    -2.9475     0.0000     8.0000 </r>
       <r>    -2.8456     0.0000     8.0000 </r>
       <r>    -2.7436     0.0000     8.0000 </r>
       <r>    -2.6417     0.0000     8.0000 </r>
       <r>    -2.5397     0.0000     8.0000 </r>
       <r>    -2.4378     0.0000     8.0000 </r>
       <r>    -2.3358     0.0000     8.0000 </r>
       <r>    -2.2339     0.0000     8.0000 </r>
       <r>    -2.1320     0.0000     8.0000 </r>
       <r>    -2.0300     0.0000     8.0000 </r>
       <r>    -1.9281     0.0000     8.0000 </r>
       <r>    -1.8261     0.0000     8.0000 </r>
       <r>    -1.7242     0.0000     8.0000 </r>
       <r>    -1.6222     0.0000     8.0000 </r>
       <r>    -1.5203     0.0000     8.0000 </r>
       <r>    -1.4184     0.0000     8.0000 </r>
       <r>    -1.3164     0.0000     8.0000 </r>
       <r>    -1.2145     0.0000     8.0000 </r>
       <r>    -1.1125     0.0026     8.0003 </r>
       <r>    -1.0106     4.3383     8.4425 </r>
       <r>    -0.9086    14.9407     9.9656 </r>
       <r>    -0.8067     0.3374    10.0000 </r>
       <r>    -0.7048     0.0000    10.0000 </r>
       <r>    -0.6028     0.0000    10.0000 </r>
       <r>    -0.5009     0.0000    10.0000 </r>
       <r>    -0.3989     0.0000    10.0000 </r>
       <r>    -0.2970     0.0000    10.0000 </r>
       <r>    -0.1951     0.0000    10.0000 </r>
       <r>    -0.0931     0.0000    10.0000 </r>
       <r>     0.0088     0.0000    10.0000 </r>
       <r>     0.1108     0.0000    10.0000 </r>
       <r>     0.2127     0.0000    10.0000 </r>
       <r>     0.3147     0.0000    10.0000 </r>
       <r>     0.4166     0.2174    10.0222 </r>
       <r>     0.5185    13.9936    11.4487 </r>
       <r>     0.6205     5.4098    12.0002 </r>
       <r>     0.7224     5.9796    12.6098 </r>
       <r>     0.8244    13.4644    13.9824 </r>
       <r>     0.9263     0.1731    14.0000 </r>
       <r>     1.0283     0.3107    14.0317 </r>
       <r>     1.1302    20.5552    16.1271 </r>
       <r>     1.2321    18.6620    18.0296 </r>
       <r>     1.3341    19.4838    20.0158 </r>
       <r>     1.4360    19.0194    21.9547 </r>
       <r>     1.5380     0.4446    22.0000 </r>
       <r>     1.6399     0.0000    22.0000 </r>
       <r>     1.7419     0.0000    22.0000 </r>
       <r>     1.8438     0.0000    22.0000 </r>
       <r>     1.9457     0.0182    22.0019 </r>
       <r>     2.0477     8.0152    22.8189 </r>
       <r>     2.1496    11.5108    23.9924 </r>
       <r>     2.2516     4.7445    24.4760 </r>
       <r>     2.3535    14.6571    25.9702 </r>
       <r>     2.4555     4.4404    26.4229 </r>
       <r>     2.5574    33.3451    29.8222 </r>
       <r>     2.6593    20.7084    31.9332 </r>
       <r>     2.7613     0.6549    32.0000 </r>
       <r>     2.8632     0.0000    32.0000 </r>
       <r>     2.9652     0.0000    32.0000 </r>
       <r>     3.0671     0.0000    32.0000 </r>
       <r>     3.1690     0.0000    32.0000 </r>
       <r>     3.2710     0.0000    32.0000 </r>
       <r>     3.3729     0.0000    32.0000 </r>
       <r>     3.4749     0.0000    32.0000 </r>
       <r>     3.5768     0.0000    32.0000 </r>
       <r>     3.6788     0.0000    32.0000 </r>
       <r>     3.7807     0.0000    32.0000 </r>
       <r>     3.8826     0.0000    32.0000 </r>
       <r>     3.9846     0.0000    32.0000 </r>
      </set>
     </set>
    </array>
   </total>
   <partial>
    <array>
     <dimension dim="1">gridpoints</dimension>
     <dimension dim="2">spin</dimension>
     <dimension dim="3">ion</dimension>
     <field>energy</field>
     <field>  s</field>
     <field>  p</field>
     <field>  d</field>
     <set>
      <set comment="ion 1">
       <set comment="spin 1">
        <r>   -26.5981     0.0000     0.0000     0.0000 </r>
        <r>   -26.4962     0.0000     0.0000     0.0000 </r>
        <r>   -26.3943     0.0000     0.0000     0.0000 </r>
        <r>   -26.2923     0.0000     0.0000     0.0000 </r>
        <r>   -26.1904     0.0000     0.0000     0.0000 </r>
        <r>   -26.0884     0.0000     0.0000     0.0000 </r>
        <r>   -25.9865     0.0000     0.0000     0.0000 </r>
        <r>   -25.8845     0.0000     0.0000     0.0000 </r>
        <r>   -25.7826     0.0000     0.0000     0.0000 </r>
        <r>   -25.6807     0.0000     0.0000     0.0000 </r>
        <r>   -25.5787     0.0000     0.0000     0.0000 </r>
        <r>   -25.4768     0.0000     0.0000     0.0000 </r>
        <r>   -25.3748     0.0000     0.0000     0.0000 </r>
        <r>   -25.2729     0.4662     0.0253     0.0000 </r>
        <r>   -25.1709    11.4866     0.6240     0.0000 </r>
        <r>   -25.0690     2.0626     0.1121     0.0000 </r>
        <r>   -24.9671     0.0006     0.0000     0.0000 </r>
        <r>   -24.8651     0.0000     0.0000     0.0000 </r>
        <r>   -24.7632     0.0000     0.0000     0.0000 </r>
        <r>   -24.6612     0.0000     0.0000     0.0000 </r>
        <r>   -24.5593     0.0000     0.0000     0.0000 </r>
        <r>   -24.4573     0.0000     0.0000     0.0000 </r>
        <r>   -24.3554     0.0000     0.0000     0.0000 </r>
        <r>   -24.2535     0.0000     0.0000     0.0000 </r>
        <r>   -24.1515     0.0000     0.0000     0.0000 </r>
        <r>   -24.0496     0.0000     0.0000     0.0000 </r>
        <r>   -23.9476     0.0000     0.0000     0.0000 </r>
        <r>   -23.8457     0.0000     0.0000     0.0000 </r>
        <r>   -23.7438     0.0000     0.0000     0.0000 </r>
        <r>   -23.6418     0.0000     0.0000     0.0000 </r>
        <r>   -23.5399     0.0000     0.0000     0.0000 </r>
        <r>   -23.4379     0.0000     0.0000     0.0000 </r>
        <r>   -23.3360     0.0000     0.0000     0.0000 </r>
        <r>   -23.2340     0.0000     0.0000     0.0000 </r>
        <r>   -23.1321     0.0000     0.0000     0.0000 </r>
        <r>   -23.0302     0.0000     0.0000     0.0000 </r>
        <r>   -22.9282     0.0000     0.0000     0.0000 </r>
        <r>   -22.8263     0.0000     0.0000     0.0000 </r>
        <r>   -22.7243     0.0000     0.0000     0.0000 </r>
        <r>   -22.6224     0.0000     0.0000     0.0000 </r>
        <r>   -22.5204     0.0000     0.0000     0.0000 </r>
        <r>   -22.4185     0.0000     0.0000     0.0000 </r>
        <r>   -22.3166     0.0000     0.0000     0.0000 </r>
        <r>   -22.2146     0.0000     0.0000     0.0000 </r>
        <r>   -22.1127     0.0000     0.0000     0.0000 </r>
        <r>   -22.0107     0.0000     0.0000     0.0000 </r>
        <r>   -21.9088     0.0000     0.0000     0.0000 </r>
        <r>   -21.8068     0.0000     0.0000     0.0000 </r>
        <r>   -21.7049     0.0000     0.0000     0.0000 </r>
        <r>   -21.6030     0.0000     0.0000     0.0000 </r>
        <r>   -21.5010     0.0000     0.0000     0.0000 </r>
        <r>   -21.3991     0.0000     0.0000     0.0000 </r>
        <r>   -21.2971     0.0000     0.0000     0.0000 </r>
        <r>   -21.1952     0.0000     0.0000     0.0000 </r>
        <r>   -21.0932     0.0000     0.0000     0.0000 </r>
        <r>   -20.9913     0.0000     0.0000     0.0000 </r>
        <r>   -20.8894     0.0000     0.0000     0.0000 </r>
        <r>   -20.7874     0.0000     0.0000     0.0000 </r>
        <r>   -20.6855     0.0000     0.0000     0.0000 </r>
        <r>   -20.5835     0.0000     0.0000     0.0000 </r>
        <r>   -20.4816     0.0000     0.0000     0.0000 </r>
        <r>   -20.3797     0.0000     0.0000     0.0000 </r>
        <r>   -20.2777     0.0000     0.0000     0.0000 </r>
        <r>   -20.1758     0.0000     0.0000     0.0000 </r>
        <r>   -20.0738     0.0000     0.0000     0.0000 </r>
        <r>   -19.9719     0.0000     0.0000     0.0000 </r>
        <r>   -19.8699     0.0000     0.0000     0.0000 </r>
        <r>   -19.7680     0.0000     0.0000     0.0000 </r>
        <r>   -19.6661     0.0000     0.0000     0.0000 </r>
        <r>   -19.5641     0.0000     0.0000     0.0000 </r>
        <r>   -19.4622     0.0000     0.0000     0.0000 </r>
        <r>   -19.3602     0.0000     0.0000     0.0000 </r>
        <r>   -19.2583     0.0000     0.0000     0.0000 </r>
        <r>   -19.1563     0.0000     0.0000     0.0000 </r>
        <r>   -19.0544     0.0000     0.0000     0.0000 </r>
        <r>   -18.9525     0.0000     0.0000     0.0000 </r>
        <r>   -18.8505     0.0000     0.0000     0.0000 </r>
        <r>   -18.7486     0.0000     0.0000     0.0000 </r>
        <r>   -18.6466     0.0000     0.0000     0.0000 </r>
        <r>   -18.5447     0.0000     0.0000     0.0000 </r>
        <r>   -18.4427     0.0000     0.0000     0.0000 </r>
        <r>   -18.3408     0.0000     0.0000     0.0000 </r>
        <r>   -18.2389     0.0000     0.0000     0.0000 </r>
        <r>   -18.1369     0.0000     0.0000     0.0000 </r>
        <r>   -18.0350     0.0000     0.0000     0.0000 </r>
        <r>   -17.9330     0.0000     0.0000     0.0000 </r>
        <r>   -17.8311     0.0000     0.0000     0.0000 </r>
        <r>   -17.7291     0.0000     0.0000     0.0000 </r>
        <r>   -17.6272     0.0000     0.0000     0.0000 </r>
        <r>   -17.5253     0.0000     0.0000     0.0000 </r>
        <r>   -17.4233     0.0000     0.0000     0.0000 </r>
        <r>   -17.3214     0.0000     0.0000     0.0000 </r>
        <r>   -17.2194     0.0000     0.0000     0.0000 </r>
        <r>   -17.1175     0.0000     0.0000     0.0000 </r>
        <r>   -17.0156     0.0000     0.0000     0.0000 </r>
        <r>   -16.9136     0.0000     0.0000     0.0000 </r>
        <r>   -16.8117     0.0000     0.0000     0.0000 </r>
        <r>   -16.7097     0.0000     0.0000     0.0000 </r>
        <r>   -16.6078     0.0000     0.0000     0.0000 </r>
        <r>   -16.5058     0.0000     0.0000     0.0000 </r>
        <r>   -16.4039     0.0000     0.0000     0.0000 </r>
        <r>   -16.3020     0.0000     0.0000     0.0000 </r>
        <r>   -16.2000     0.0000     0.0000     0.0000 </r>
        <r>   -16.0981     0.0000     0.0000     0.0000 </r>
        <r>   -15.9961     0.0000     0.0000     0.0000 </r>
        <r>   -15.8942     0.0000     0.0000     0.0000 </r>
        <r>   -15.7922     0.0000     0.0000     0.0000 </r>
        <r>   -15.6903     0.0000     0.0000     0.0000 </r>
        <r>   -15.5884     0.0000     0.0000     0.0000 </r>
        <r>   -15.4864     0.0000     0.0000     0.0000 </r>
        <r>   -15.3845     0.0000     0.0000     0.0000 </r>
        <r>   -15.2825     0.0000     0.0000     0.0000 </r>
        <r>   -15.1806     0.0000     0.0000     0.0000 </r>
        <r>   -15.0786     0.0000     0.0000     0.0000 </r>
        <r>   -14.9767     0.0000     0.0000     0.0000 </r>
        <r>   -14.8748     0.0000     0.0000     0.0000 </r>
        <r>   -14.7728     0.0000     0.0000     0.0000 </r>
        <r>   -14.6709     0.0000     0.0000     0.0000 </r>
        <r>   -14.5689     0.0000     0.0000     0.0000 </r>
        <r>   -14.4670     0.0000     0.0000     0.0000 </r>
        <r>   -14.3650     0.0000     0.0000     0.0000 </r>
        <r>   -14.2631     0.0000     0.0000     0.0000 </r>
        <r>   -14.1612     0.0000     0.0000     0.0000 </r>
        <r>   -14.0592     0.0000     0.0000     0.0000 </r>
        <r>   -13.9573     0.0000     0.0000     0.0000 </r>
        <r>   -13.8553     0.0000     0.0000     0.0000 </r>
        <r>   -13.7534     0.0000     0.0000     0.0000 </r>
        <r>   -13.6515     0.0000     0.0000     0.0000 </r>
        <r>   -13.5495     0.0000     0.0000     0.0000 </r>
        <r>   -13.4476     0.0000     0.0000     0.0000 </r>
        <r>   -13.3456     0.0000     0.0000     0.0000 </r>
        <r>   -13.2437     0.0000     0.0000     0.0000 </r>
        <r>   -13.1417     0.0000     0.0000     0.0000 </r>
        <r>   -13.0398     0.0000     0.4726     0.0000 </r>
        <r>   -12.9379     0.0000     8.9360     0.0000 </r>
        <r>   -12.8359     0.0000     1.2703     0.0000 </r>
        <r>   -12.7340     0.0000     0.0003     0.0000 </r>
        <r>   -12.6320     0.0000     0.0000     0.0000 </r>
        <r>   -12.5301     0.0000     0.0000     0.0000 </r>
        <r>   -12.4281     0.0000     0.0000     0.0000 </r>
        <r>   -12.3262     0.0000     0.0000     0.0000 </r>
        <r>   -12.2243     0.0000     0.0000     0.0000 </r>
        <r>   -12.1223     0.0000     0.0000     0.0000 </r>
        <r>   -12.0204     0.0000     0.0000     0.0000 </r>
        <r>   -11.9184     0.0000     0.0000     0.0000 </r>
        <r>   -11.8165     0.0000     0.0000     0.0000 </r>
        <r>   -11.7145     0.0000     0.0000     0.0000 </r>
        <r>   -11.6126     0.0000     0.0000     0.0000 </r>
        <r>   -11.5107     0.0000     0.0000     0.0000 </r>
        <r>   -11.4087     0.0000     0.0000     0.0000 </r>
        <r>   -11.3068     0.0000     0.0000     0.0000 </r>
        <r>   -11.2048     0.0000     0.0000     0.0000 </r>
        <r>   -11.1029     0.0000     0.0000     0.0000 </r>
        <r>   -11.0009     0.0000     0.0000     0.0000 </r>
        <r>   -10.8990     0.0000     0.0000     0.0000 </r>
        <r>   -10.7971     0.0000     0.0000     0.0000 </r>
        <r>   -10.6951     0.0000     0.0000     0.0000 </r>
        <r>   -10.5932     0.0000     0.0000     0.0000 </r>
        <r>   -10.4912     0.0000     0.0000     0.0000 </r>
        <r>   -10.3893     0.0000     0.0000     0.0000 </r>
        <r>   -10.2874     0.0000     0.0000     0.0000 </r>
        <r>   -10.1854     0.0000     0.0000     0.0000 </r>
        <r>   -10.0835     0.0000     0.0000     0.0000 </r>
        <r>    -9.9815     0.0000     0.0000     0.0000 </r>
        <r>    -9.8796     0.0000     0.0000     0.0000 </r>
        <r>    -9.7776     0.0000     0.0000     0.0000 </r>
        <r>    -9.6757     0.0000     0.0000     0.0000 </r>
        <r>    -9.5738     0.0000     0.0000     0.0000 </r>
        <r>    -9.4718     0.0000     0.0000     0.0000 </r>
        <r>    -9.3699     0.0000     0.0000     0.0000 </r>
        <r>    -9.2679     0.0453     0.3073     0.0000 </r>
        <r>    -9.1660     1.2954     8.7854     0.0000 </r>
        <r>    -9.0640     0.2639     1.7900     0.0000 </r>
        <r>    -8.9621     0.0001     0.0006     0.0000 </r>
        <r>    -8.8602     0.0000     0.0000     0.0000 </r>
        <r>    -8.7582     0.0000     0.0000     0.0000 </r>
        <r>    -8.6563     0.0000     0.0000     0.0000 </r>
        <r>    -8.5543     0.0000     0.0000     0.0000 </r>
        <r>    -8.4524     0.0000     0.0000     0.0000 </r>
        <r>    -8.3504     0.0000     0.0000     0.0000 </r>
        <r>    -8.2485     0.0000     0.0000     0.0000 </r>
        <r>    -8.1466     0.0000     0.0000     0.0000 </r>
        <r>    -8.0446     0.0000     0.0000     0.0000 </r>
        <r>    -7.9427     0.0000     0.0000     0.0000 </r>
        <r>    -7.8407     0.0000     0.0000     0.0000 </r>
        <r>    -7.7388     0.0000     0.0000     0.0000 </r>
        <r>    -7.6368     0.0000     0.0000     0.0000 </r>
        <r>    -7.5349     0.0000     0.0000     0.0000 </r>
        <r>    -7.4330     0.0000     0.0000     0.0000 </r>
        <r>    -7.3310     0.0000     0.0000     0.0000 </r>
        <r>    -7.2291     0.0000     0.0311     0.0000 </r>
        <r>    -7.1271     0.0000     6.8482     0.0000 </r>
        <r>    -7.0252     0.0000     6.2478     0.0000 </r>
        <r>    -6.9233     0.0000     0.0215     0.0000 </r>
        <r>    -6.8213     0.0000     0.0000     0.0000 </r>
        <r>    -6.7194     0.0000     0.0000     0.0000 </r>
        <r>    -6.6174     0.0000     0.0000     0.0000 </r>
        <r>    -6.5155     0.0000     0.0000     0.0000 </r>
        <r>    -6.4135     0.0000     0.0000     0.0000 </r>
        <r>    -6.3116     0.0000     0.0000     0.0000 </r>
        <r>    -6.2097     0.0000     0.0000     0.0000 </r>
        <r>    -6.1077     0.0000     0.0000     0.0000 </r>
        <r>    -6.0058     0.0000     0.0000     0.0000 </r>
        <r>    -5.9038     0.0000     0.0000     0.0000 </r>
        <r>    -5.8019     0.0000     0.0000     0.0000 </r>
        <r>    -5.6999     0.0000     0.0000     0.0000 </r>
        <r>    -5.5980     0.0000     0.0000     0.0000 </r>
        <r>    -5.4961     0.0000     0.0000     0.0000 </r>
        <r>    -5.3941     0.0000     0.0000     0.0000 </r>
        <r>    -5.2922     0.0000     0.0000     0.0000 </r>
        <r>    -5.1902     0.0000     0.0000     0.0000 </r>
        <r>    -5.0883     0.0000     0.0000     0.0000 </r>
        <r>    -4.9863     0.0000     0.0000     0.0000 </r>
        <r>    -4.8844     0.0000     0.0000     0.0000 </r>
        <r>    -4.7825     0.0000     0.0000     0.0000 </r>
        <r>    -4.6805     0.0000     0.0000     0.0000 </r>
        <r>    -4.5786     0.0000     0.0000     0.0000 </r>
        <r>    -4.4766     0.0000     0.0000     0.0000 </r>
        <r>    -4.3747     0.0000     0.0000     0.0000 </r>
        <r>    -4.2727     0.0000     0.0000     0.0000 </r>
        <r>    -4.1708     0.0000     0.0000     0.0000 </r>
        <r>    -4.0689     0.0000     0.0000     0.0000 </r>
        <r>    -3.9669     0.0000     0.0000     0.0000 </r>
        <r>    -3.8650     0.0000     0.0000     0.0000 </r>
        <r>    -3.7630     0.0000     0.0000     0.0000 </r>
        <r>    -3.6611     0.0000     0.0000     0.0000 </r>
        <r>    -3.5592     0.0000     0.0000     0.0000 </r>
        <r>    -3.4572     0.0000     0.0000     0.0000 </r>
        <r>    -3.3553     0.0000     0.0000     0.0000 </r>
        <r>    -3.2533     0.0000     0.0000     0.0000 </r>
        <r>    -3.1514     0.0000     0.0000     0.0000 </r>
        <r>    -3.0494     0.0000     0.0000     0.0000 </r>
        <r>    -2.9475     0.0000     0.0000     0.0000 </r>
        <r>    -2.8456     0.0000     0.0000     0.0000 </r>
        <r>    -2.7436     0.0000     0.0000     0.0000 </r>
        <r>    -2.6417     0.0000     0.0000     0.0000 </r>
        <r>    -2.5397     0.0000     0.0000     0.0000 </r>
        <r>    -2.4378     0.0000     0.0000     0.0000 </r>
        <r>    -2.3358     0.0000     0.0000     0.0000 </r>
        <r>    -2.2339     0.0000     0.0000     0.0000 </r>
        <r>    -2.1320     0.0000     0.0000     0.0000 </r>
        <r>    -2.0300     0.0000     0.0000     0.0000 </r>
        <r>    -1.9281     0.0000     0.0000     0.0000 </r>
        <r>    -1.8261     0.0000     0.0000     0.0000 </r>
        <r>    -1.7242     0.0000     0.0000     0.0000 </r>
        <r>    -1.6222     0.0000     0.0000     0.0000 </r>
        <r>    -1.5203     0.0000     0.0000     0.0000 </r>
        <r>    -1.4184     0.0000     0.0000     0.0000 </r>
        <r>    -1.3164     0.0000     0.0000     0.0000 </r>
        <r>    -1.2145     0.0000     0.0000     0.0000 </r>
        <r>    -1.1125     0.0001     0.0001     0.0000 </r>
        <r>    -1.0106     0.1078     0.1327     0.0000 </r>
        <r>    -0.9086     0.3714     0.4569     0.0000 </r>
        <r>    -0.8067     0.0084     0.0103     0.0000 </r>
        <r>    -0.7048     0.0000     0.0000     0.0000 </r>
        <r>    -0.6028     0.0000     0.0000     0.0000 </r>
        <r>    -0.5009     0.0000     0.0000     0.0000 </r>
        <r>    -0.3989     0.0000     0.0000     0.0000 </r>
        <r>    -0.2970     0.0000     0.0000     0.0000 </r>
        <r>    -0.1951     0.0000     0.0000     0.0000 </r>
        <r>    -0.0931     0.0000     0.0000     0.0000 </r>
        <r>     0.0088     0.0000     0.0000     0.0000 </r>
        <r>     0.1108     0.0000     0.0000     0.0000 </r>
        <r>     0.2127     0.0000     0.0000     0.0000 </r>
        <r>     0.3147     0.0000     0.0000     0.0000 </r>
        <r>     0.4166     0.0018     0.0047     0.0000 </r>
        <r>     0.5185     0.1182     0.2999     0.0000 </r>
        <r>     0.6205     0.0456     0.1162     0.0000 </r>
        <r>     0.7224     0.0000     0.3149     0.0000 </r>
        <r>     0.8244     0.0000     0.7093     0.0000 </r>
        <r>     0.9263     0.0000     0.0091     0.0000 </r>
        <r>     1.0283     0.0000     0.0056     0.0000 </r>
        <r>     1.1302     0.0261     0.2888     0.0000 </r>
        <r>     1.2321     0.0613     0.1295     0.0000 </r>
        <r>     1.3341     0.0146     0.0101     0.0000 </r>
        <r>     1.4360     0.0114     0.0125     0.0000 </r>
        <r>     1.5380     0.0003     0.0003     0.0000 </r>
        <r>     1.6399     0.0000     0.0000     0.0000 </r>
        <r>     1.7419     0.0000     0.0000     0.0000 </r>
        <r>     1.8438     0.0000     0.0000     0.0000 </r>
        <r>     1.9457     0.0000     0.0006     0.0000 </r>
        <r>     2.0477     0.0000     0.2578     0.0000 </r>
        <r>     2.1496     0.0000     0.3701     0.0000 </r>
        <r>     2.2516     0.0194     0.1044     0.0000 </r>
        <r>     2.3535     0.0611     0.3199     0.0000 </r>
        <r>     2.4555     0.0012     0.0507     0.0000 </r>
        <r>     2.5574     0.0000     0.1884     0.0000 </r>
        <r>     2.6593     0.0000     0.0522     0.0000 </r>
        <r>     2.7613     0.0000     0.0019     0.0000 </r>
        <r>     2.8632     0.0000     0.0000     0.0000 </r>
        <r>     2.9652     0.0000     0.0000     0.0000 </r>
        <r>     3.0671     0.0000     0.0000     0.0000 </r>
        <r>     3.1690     0.0000     0.0000     0.0000 </r>
        <r>     3.2710     0.0000     0.0000     0.0000 </r>
        <r>     3.3729     0.0000     0.0000     0.0000 </r>
        <r>     3.4749     0.0000     0.0000     0.0000 </r>
        <r>     3.5768     0.0000     0.0000     0.0000 </r>
        <r>     3.6788     0.0000     0.0000     0.0000 </r>
        <r>     3.7807     0.0000     0.0000     0.0000 </r>
        <r>     3.8826     0.0000     0.0000     0.0000 </r>
        <r>     3.9846     0.0000     0.0000     0.0000 </r>
       </set>
      </set>
      <set comment="ion 2">
       <set comment="spin 1">
        <r>   -26.5981     0.0000     0.0000     0.0000 </r>
        <r>   -26.4962     0.0000     0.0000     0.0000 </r>
        <r>   -26.3943     0.0000     0.0000     0.0000 </r>
        <r>   -26.2923     0.0000     0.0000     0.0000 </r>
        <r>   -26.1904     0.0000     0.0000     0.0000 </r>
        <r>   -26.0884     0.0000     0.0000     0.0000 </r>
        <r>   -25.9865     0.0000     0.0000     0.0000 </r>
        <r>   -25.8845     0.0000     0.0000     0.0000 </r>
        <r>   -25.7826     0.0000     0.0000     0.0000 </r>
        <r>   -25.6807     0.0000     0.0000     0.0000 </r>
        <r>   -25.5787     0.0000     0.0000     0.0000 </r>
        <r>   -25.4768     0.0000     0.0000     0.0000 </r>
        <r>   -25.3748     0.0000     0.0000     0.0000 </r>
        <r>   -25.2729     0.0636     0.0128     0.0000 </r>
        <r>   -25.1709     1.5662     0.3159     0.0000 </r>
        <r>   -25.0690     0.2812     0.0567     0.0000 </r>
        <r>   -24.9671     0.0001     0.0000     0.0000 </r>
        <r>   -24.8651     0.0000     0.0000     0.0000 </r>
        <r>   -24.7632     0.0000     0.0000     0.0000 </r>
        <r>   -24.6612     0.0000     0.0000     0.0000 </r>
        <r>   -24.5593     0.0000     0.0000     0.0000 </r>
        <r>   -24.4573     0.0000     0.0000     0.0000 </r>
        <r>   -24.3554     0.0000     0.0000     0.0000 </r>
        <r>   -24.2535     0.0000     0.0000     0.0000 </r>
        <r>   -24.1515     0.0000     0.0000     0.0000 </r>
        <r>   -24.0496     0.0000     0.0000     0.0000 </r>
        <r>   -23.9476     0.0000     0.0000     0.0000 </r>
        <r>   -23.8457     0.0000     0.0000     0.0000 </r>
        <r>   -23.7438     0.0000     0.0000     0.0000 </r>
        <r>   -23.6418     0.0000     0.0000     0.0000 </r>
        <r>   -23.5399     0.0000     0.0000     0.0000 </r>
        <r>   -23.4379     0.0000     0.0000     0.0000 </r>
        <r>   -23.3360     0.0000     0.0000     0.0000 </r>
        <r>   -23.2340     0.0000     0.0000     0.0000 </r>
        <r>   -23.1321     0.0000     0.0000     0.0000 </r>
        <r>   -23.0302     0.0000     0.0000     0.0000 </r>
        <r>   -22.9282     0.0000     0.0000     0.0000 </r>
        <r>   -22.8263     0.0000     0.0000     0.0000 </r>
        <r>   -22.7243     0.0000     0.0000     0.0000 </r>
        <r>   -22.6224     0.0000     0.0000     0.0000 </r>
        <r>   -22.5204     0.0000     0.0000     0.0000 </r>
        <r>   -22.4185     0.0000     0.0000     0.0000 </r>
        <r>   -22.3166     0.0000     0.0000     0.0000 </r>
        <r>   -22.2146     0.0000     0.0000     0.0000 </r>
        <r>   -22.1127     0.0000     0.0000     0.0000 </r>
        <r>   -22.0107     0.0000     0.0000     0.0000 </r>
        <r>   -21.9088     0.0000     0.0000     0.0000 </r>
        <r>   -21.8068     0.0000     0.0000     0.0000 </r>
        <r>   -21.7049     0.0000     0.0000     0.0000 </r>
        <r>   -21.6030     0.0000     0.0000     0.0000 </r>
        <r>   -21.5010     0.0000     0.0000     0.0000 </r>
        <r>   -21.3991     0.0000     0.0000     0.0000 </r>
        <r>   -21.2971     0.0000     0.0000     0.0000 </r>
        <r>   -21.1952     0.0000     0.0000     0.0000 </r>
        <r>   -21.0932     0.0000     0.0000     0.0000 </r>
        <r>   -20.9913     0.0000     0.0000     0.0000 </r>
        <r>   -20.8894     0.0000     0.0000     0.0000 </r>
        <r>   -20.7874     0.0000     0.0000     0.0000 </r>
        <r>   -20.6855     0.0000     0.0000     0.0000 </r>
        <r>   -20.5835     0.0000     0.0000     0.0000 </r>
        <r>   -20.4816     0.0000     0.0000     0.0000 </r>
        <r>   -20.3797     0.0000     0.0000     0.0000 </r>
        <r>   -20.2777     0.0000     0.0000     0.0000 </r>
        <r>   -20.1758     0.0000     0.0000     0.0000 </r>
        <r>   -20.0738     0.0000     0.0000     0.0000 </r>
        <r>   -19.9719     0.0000     0.0000     0.0000 </r>
        <r>   -19.8699     0.0000     0.0000     0.0000 </r>
        <r>   -19.7680     0.0000     0.0000     0.0000 </r>
        <r>   -19.6661     0.0000     0.0000     0.0000 </r>
        <r>   -19.5641     0.0000     0.0000     0.0000 </r>
        <r>   -19.4622     0.0000     0.0000     0.0000 </r>
        <r>   -19.3602     0.0000     0.0000     0.0000 </r>
        <r>   -19.2583     0.0000     0.0000     0.0000 </r>
        <r>   -19.1563     0.0000     0.0000     0.0000 </r>
        <r>   -19.0544     0.0000     0.0000     0.0000 </r>
        <r>   -18.9525     0.0000     0.0000     0.0000 </r>
        <r>   -18.8505     0.0000     0.0000     0.0000 </r>
        <r>   -18.7486     0.0000     0.0000     0.0000 </r>
        <r>   -18.6466     0.0000     0.0000     0.0000 </r>
        <r>   -18.5447     0.0000     0.0000     0.0000 </r>
        <r>   -18.4427     0.0000     0.0000     0.0000 </r>
        <r>   -18.3408     0.0000     0.0000     0.0000 </r>
        <r>   -18.2389     0.0000     0.0000     0.0000 </r>
        <r>   -18.1369     0.0000     0.0000     0.0000 </r>
        <r>   -18.0350     0.0000     0.0000     0.0000 </r>
        <r>   -17.9330     0.0000     0.0000     0.0000 </r>
        <r>   -17.8311     0.0000     0.0000     0.0000 </r>
        <r>   -17.7291     0.0000     0.0000     0.0000 </r>
        <r>   -17.6272     0.0000     0.0000     0.0000 </r>
        <r>   -17.5253     0.0000     0.0000     0.0000 </r>
        <r>   -17.4233     0.0000     0.0000     0.0000 </r>
        <r>   -17.3214     0.0000     0.0000     0.0000 </r>
        <r>   -17.2194     0.0000     0.0000     0.0000 </r>
        <r>   -17.1175     0.0000     0.0000     0.0000 </r>
        <r>   -17.0156     0.0000     0.0000     0.0000 </r>
        <r>   -16.9136     0.0000     0.0000     0.0000 </r>
        <r>   -16.8117     0.0000     0.0000     0.0000 </r>
        <r>   -16.7097     0.0000     0.0000     0.0000 </r>
        <r>   -16.6078     0.0000     0.0000     0.0000 </r>
        <r>   -16.5058     0.0000     0.0000     0.0000 </r>
        <r>   -16.4039     0.0000     0.0000     0.0000 </r>
        <r>   -16.3020     0.0000     0.0000     0.0000 </r>
        <r>   -16.2000     0.0000     0.0000     0.0000 </r>
        <r>   -16.0981     0.0000     0.0000     0.0000 </r>
        <r>   -15.9961     0.0000     0.0000     0.0000 </r>
        <r>   -15.8942     0.0000     0.0000     0.0000 </r>
        <r>   -15.7922     0.0000     0.0000     0.0000 </r>
        <r>   -15.6903     0.0000     0.0000     0.0000 </r>
        <r>   -15.5884     0.0000     0.0000     0.0000 </r>
        <r>   -15.4864     0.0000     0.0000     0.0000 </r>
        <r>   -15.3845     0.0000     0.0000     0.0000 </r>
        <r>   -15.2825     0.0000     0.0000     0.0000 </r>
        <r>   -15.1806     0.0000     0.0000     0.0000 </r>
        <r>   -15.0786     0.0000     0.0000     0.0000 </r>
        <r>   -14.9767     0.0000     0.0000     0.0000 </r>
        <r>   -14.8748     0.0000     0.0000     0.0000 </r>
        <r>   -14.7728     0.0000     0.0000     0.0000 </r>
        <r>   -14.6709     0.0000     0.0000     0.0000 </r>
        <r>   -14.5689     0.0000     0.0000     0.0000 </r>
        <r>   -14.4670     0.0000     0.0000     0.0000 </r>
        <r>   -14.3650     0.0000     0.0000     0.0000 </r>
        <r>   -14.2631     0.0000     0.0000     0.0000 </r>
        <r>   -14.1612     0.0000     0.0000     0.0000 </r>
        <r>   -14.0592     0.0000     0.0000     0.0000 </r>
        <r>   -13.9573     0.0000     0.0000     0.0000 </r>
        <r>   -13.8553     0.0000     0.0000     0.0000 </r>
        <r>   -13.7534     0.0000     0.0000     0.0000 </r>
        <r>   -13.6515     0.0000     0.0000     0.0000 </r>
        <r>   -13.5495     0.0000     0.0000     0.0000 </r>
        <r>   -13.4476     0.0000     0.0000     0.0000 </r>
        <r>   -13.3456     0.0000     0.0000     0.0000 </r>
        <r>   -13.2437     0.0000     0.0000     0.0000 </r>
        <r>   -13.1417     0.0000     0.0000     0.0000 </r>
        <r>   -13.0398     0.1445     0.0160     0.0000 </r>
        <r>   -12.9379     2.7312     0.3022     0.0000 </r>
        <r>   -12.8359     0.3883     0.0430     0.0000 </r>
        <r>   -12.7340     0.0001     0.0000     0.0000 </r>
        <r>   -12.6320     0.0000     0.0000     0.0000 </r>
        <r>   -12.5301     0.0000     0.0000     0.0000 </r>
        <r>   -12.4281     0.0000     0.0000     0.0000 </r>
        <r>   -12.3262     0.0000     0.0000     0.0000 </r>
        <r>   -12.2243     0.0000     0.0000     0.0000 </r>
        <r>   -12.1223     0.0000     0.0000     0.0000 </r>
        <r>   -12.0204     0.0000     0.0000     0.0000 </r>
        <r>   -11.9184     0.0000     0.0000     0.0000 </r>
        <r>   -11.8165     0.0000     0.0000     0.0000 </r>
        <r>   -11.7145     0.0000     0.0000     0.0000 </r>
        <r>   -11.6126     0.0000     0.0000     0.0000 </r>
        <r>   -11.5107     0.0000     0.0000     0.0000 </r>
        <r>   -11.4087     0.0000     0.0000     0.0000 </r>
        <r>   -11.3068     0.0000     0.0000     0.0000 </r>
        <r>   -11.2048     0.0000     0.0000     0.0000 </r>
        <r>   -11.1029     0.0000     0.0000     0.0000 </r>
        <r>   -11.0009     0.0000     0.0000     0.0000 </r>
        <r>   -10.8990     0.0000     0.0000     0.0000 </r>
        <r>   -10.7971     0.0000     0.0000     0.0000 </r>
        <r>   -10.6951     0.0000     0.0000     0.0000 </r>
        <r>   -10.5932     0.0000     0.0000     0.0000 </r>
        <r>   -10.4912     0.0000     0.0000     0.0000 </r>
        <r>   -10.3893     0.0000     0.0000     0.0000 </r>
        <r>   -10.2874     0.0000     0.0000     0.0000 </r>
        <r>   -10.1854     0.0000     0.0000     0.0000 </r>
        <r>   -10.0835     0.0000     0.0000     0.0000 </r>
        <r>    -9.9815     0.0000     0.0000     0.0000 </r>
        <r>    -9.8796     0.0000     0.0000     0.0000 </r>
        <r>    -9.7776     0.0000     0.0000     0.0000 </r>
        <r>    -9.6757     0.0000     0.0000     0.0000 </r>
        <r>    -9.5738     0.0000     0.0000     0.0000 </r>
        <r>    -9.4718     0.0000     0.0000     0.0000 </r>
        <r>    -9.3699     0.0000     0.0000     0.0000 </r>
        <r>    -9.2679     0.0279     0.0044     0.0000 </r>
        <r>    -9.1660     0.7964     0.1244     0.0000 </r>
        <r>    -9.0640     0.1623     0.0254     0.0000 </r>
        <r>    -8.9621     0.0001     0.0000     0.0000 </r>
        <r>    -8.8602     0.0000     0.0000     0.0000 </r>
        <r>    -8.7582     0.0000     0.0000     0.0000 </r>
        <r>    -8.6563     0.0000     0.0000     0.0000 </r>
        <r>    -8.5543     0.0000     0.0000     0.0000 </r>
        <r>    -8.4524     0.0000     0.0000     0.0000 </r>
        <r>    -8.3504     0.0000     0.0000     0.0000 </r>
        <r>    -8.2485     0.0000     0.0000     0.0000 </r>
        <r>    -8.1466     0.0000     0.0000     0.0000 </r>
        <r>    -8.0446     0.0000     0.0000     0.0000 </r>
        <r>    -7.9427     0.0000     0.0000     0.0000 </r>
        <r>    -7.8407     0.0000     0.0000     0.0000 </r>
        <r>    -7.7388     0.0000     0.0000     0.0000 </r>
        <r>    -7.6368     0.0000     0.0000     0.0000 </r>
        <r>    -7.5349     0.0000     0.0000     0.0000 </r>
        <r>    -7.4330     0.0000     0.0000     0.0000 </r>
        <r>    -7.3310     0.0000     0.0000     0.0000 </r>
        <r>    -7.2291     0.0000     0.0005     0.0000 </r>
        <r>    -7.1271     0.0000     0.1160     0.0000 </r>
        <r>    -7.0252     0.0000     0.1058     0.0000 </r>
        <r>    -6.9233     0.0000     0.0004     0.0000 </r>
        <r>    -6.8213     0.0000     0.0000     0.0000 </r>
        <r>    -6.7194     0.0000     0.0000     0.0000 </r>
        <r>    -6.6174     0.0000     0.0000     0.0000 </r>
        <r>    -6.5155     0.0000     0.0000     0.0000 </r>
        <r>    -6.4135     0.0000     0.0000     0.0000 </r>
        <r>    -6.3116     0.0000     0.0000     0.0000 </r>
        <r>    -6.2097     0.0000     0.0000     0.0000 </r>
        <r>    -6.1077     0.0000     0.0000     0.0000 </r>
        <r>    -6.0058     0.0000     0.0000     0.0000 </r>
        <r>    -5.9038     0.0000     0.0000     0.0000 </r>
        <r>    -5.8019     0.0000     0.0000     0.0000 </r>
        <r>    -5.6999     0.0000     0.0000     0.0000 </r>
        <r>    -5.5980     0.0000     0.0000     0.0000 </r>
        <r>    -5.4961     0.0000     0.0000     0.0000 </r>
        <r>    -5.3941     0.0000     0.0000     0.0000 </r>
        <r>    -5.2922     0.0000     0.0000     0.0000 </r>
        <r>    -5.1902     0.0000     0.0000     0.0000 </r>
        <r>    -5.0883     0.0000     0.0000     0.0000 </r>
        <r>    -4.9863     0.0000     0.0000     0.0000 </r>
        <r>    -4.8844     0.0000     0.0000     0.0000 </r>
        <r>    -4.7825     0.0000     0.0000     0.0000 </r>
        <r>    -4.6805     0.0000     0.0000     0.0000 </r>
        <r>    -4.5786     0.0000     0.0000     0.0000 </r>
        <r>    -4.4766     0.0000     0.0000     0.0000 </r>
        <r>    -4.3747     0.0000     0.0000     0.0000 </r>
        <r>    -4.2727     0.0000     0.0000     0.0000 </r>
        <r>    -4.1708     0.0000     0.0000     0.0000 </r>
        <r>    -4.0689     0.0000     0.0000     0.0000 </r>
        <r>    -3.9669     0.0000     0.0000     0.0000 </r>
        <r>    -3.8650     0.0000     0.0000     0.0000 </r>
        <r>    -3.7630     0.0000     0.0000     0.0000 </r>
        <r>    -3.6611     0.0000     0.0000     0.0000 </r>
        <r>    -3.5592     0.0000     0.0000     0.0000 </r>
        <r>    -3.4572     0.0000     0.0000     0.0000 </r>
        <r>    -3.3553     0.0000     0.0000     0.0000 </r>
        <r>    -3.2533     0.0000     0.0000     0.0000 </r>
        <r>    -3.1514     0.0000     0.0000     0.0000 </r>
        <r>    -3.0494     0.0000     0.0000     0.0000 </r>
        <r>    -2.9475     0.0000     0.0000     0.0000 </r>
        <r>    -2.8456     0.0000     0.0000     0.0000 </r>
        <r>    -2.7436     0.0000     0.0000     0.0000 </r>
        <r>    -2.6417     0.0000     0.0000     0.0000 </r>
        <r>    -2.5397     0.0000     0.0000     0.0000 </r>
        <r>    -2.4378     0.0000     0.0000     0.0000 </r>
        <r>    -2.3358     0.0000     0.0000     0.0000 </r>
        <r>    -2.2339     0.0000     0.0000     0.0000 </r>
        <r>    -2.1320     0.0000     0.0000     0.0000 </r>
        <r>    -2.0300     0.0000     0.0000     0.0000 </r>
        <r>    -1.9281     0.0000     0.0000     0.0000 </r>
        <r>    -1.8261     0.0000     0.0000     0.0000 </r>
        <r>    -1.7242     0.0000     0.0000     0.0000 </r>
        <r>    -1.6222     0.0000     0.0000     0.0000 </r>
        <r>    -1.5203     0.0000     0.0000     0.0000 </r>
        <r>    -1.4184     0.0000     0.0000     0.0000 </r>
        <r>    -1.3164     0.0000     0.0000     0.0000 </r>
        <r>    -1.2145     0.0000     0.0000     0.0000 </r>
        <r>    -1.1125     0.0000     0.0000     0.0000 </r>
        <r>    -1.0106     0.0174     0.0402     0.0000 </r>
        <r>    -0.9086     0.0600     0.1384     0.0000 </r>
        <r>    -0.8067     0.0014     0.0031     0.0000 </r>
        <r>    -0.7048     0.0000     0.0000     0.0000 </r>
        <r>    -0.6028     0.0000     0.0000     0.0000 </r>
        <r>    -0.5009     0.0000     0.0000     0.0000 </r>
        <r>    -0.3989     0.0000     0.0000     0.0000 </r>
        <r>    -0.2970     0.0000     0.0000     0.0000 </r>
        <r>    -0.1951     0.0000     0.0000     0.0000 </r>
        <r>    -0.0931     0.0000     0.0000     0.0000 </r>
        <r>     0.0088     0.0000     0.0000     0.0000 </r>
        <r>     0.1108     0.0000     0.0000     0.0000 </r>
        <r>     0.2127     0.0000     0.0000     0.0000 </r>
        <r>     0.3147     0.0000     0.0000     0.0000 </r>
        <r>     0.4166     0.0005     0.0010     0.0000 </r>
        <r>     0.5185     0.0339     0.0675     0.0000 </r>
        <r>     0.6205     0.0131     0.0261     0.0000 </r>
        <r>     0.7224     0.0066     0.0424     0.0000 </r>
        <r>     0.8244     0.0149     0.0954     0.0000 </r>
        <r>     0.9263     0.0002     0.0012     0.0000 </r>
        <r>     1.0283     0.0000     0.0000     0.0000 </r>
        <r>     1.1302     0.0064     0.0013     0.0000 </r>
        <r>     1.2321     0.0150     0.0032     0.0000 </r>
        <r>     1.3341     0.0010     0.0011     0.0000 </r>
        <r>     1.4360     0.0022     0.0006     0.0000 </r>
        <r>     1.5380     0.0001     0.0000     0.0000 </r>
        <r>     1.6399     0.0000     0.0000     0.0000 </r>
        <r>     1.7419     0.0000     0.0000     0.0000 </r>
        <r>     1.8438     0.0000     0.0000     0.0000 </r>
        <r>     1.9457     0.0001     0.0001     0.0000 </r>
        <r>     2.0477     0.0383     0.0417     0.0000 </r>
        <r>     2.1496     0.0550     0.0599     0.0000 </r>
        <r>     2.2516     0.0121     0.0186     0.0000 </r>
        <r>     2.3535     0.0369     0.0570     0.0000 </r>
        <r>     2.4555     0.0007     0.0016     0.0000 </r>
        <r>     2.5574     0.0033     0.0093     0.0000 </r>
        <r>     2.6593     0.0183     0.0080     0.0000 </r>
        <r>     2.7613     0.0007     0.0002     0.0000 </r>
        <r>     2.8632     0.0000     0.0000     0.0000 </r>
        <r>     2.9652     0.0000     0.0000     0.0000 </r>
        <r>     3.0671     0.0000     0.0000     0.0000 </r>
        <r>     3.1690     0.0000     0.0000     0.0000 </r>
        <r>     3.2710     0.0000     0.0000     0.0000 </r>
        <r>     3.3729     0.0000     0.0000     0.0000 </r>
        <r>     3.4749     0.0000     0.0000     0.0000 </r>
        <r>     3.5768     0.0000     0.0000     0.0000 </r>
        <r>     3.6788     0.0000     0.0000     0.0000 </r>
        <r>     3.7807     0.0000     0.0000     0.0000 </r>
        <r>     3.8826     0.0000     0.0000     0.0000 </r>
        <r>     3.9846     0.0000     0.0000     0.0000 </r>
       </set>
      </set>
      <set comment="ion 3">
       <set comment="spin 1">
        <r>   -26.5981     0.0000     0.0000     0.0000 </r>
        <r>   -26.4962     0.0000     0.0000     0.0000 </r>
        <r>   -26.3943     0.0000     0.0000     0.0000 </r>
        <r>   -26.2923     0.0000     0.0000     0.0000 </r>
        <r>   -26.1904     0.0000     0.0000     0.0000 </r>
        <r>   -26.0884     0.0000     0.0000     0.0000 </r>
        <r>   -25.9865     0.0000     0.0000     0.0000 </r>
        <r>   -25.8845     0.0000     0.0000     0.0000 </r>
        <r>   -25.7826     0.0000     0.0000     0.0000 </r>
        <r>   -25.6807     0.0000     0.0000     0.0000 </r>
        <r>   -25.5787     0.0000     0.0000     0.0000 </r>
        <r>   -25.4768     0.0000     0.0000     0.0000 </r>
        <r>   -25.3748     0.0000     0.0000     0.0000 </r>
        <r>   -25.2729     0.0636     0.0128     0.0000 </r>
        <r>   -25.1709     1.5662     0.3159     0.0000 </r>
        <r>   -25.0690     0.2812     0.0567     0.0000 </r>
        <r>   -24.9671     0.0001     0.0000     0.0000 </r>
        <r>   -24.8651     0.0000     0.0000     0.0000 </r>
        <r>   -24.7632     0.0000     0.0000     0.0000 </r>
        <r>   -24.6612     0.0000     0.0000     0.0000 </r>
        <r>   -24.5593     0.0000     0.0000     0.0000 </r>
        <r>   -24.4573     0.0000     0.0000     0.0000 </r>
        <r>   -24.3554     0.0000     0.0000     0.0000 </r>
        <r>   -24.2535     0.0000     0.0000     0.0000 </r>
        <r>   -24.1515     0.0000     0.0000     0.0000 </r>
        <r>   -24.0496     0.0000     0.0000     0.0000 </r>
        <r>   -23.9476     0.0000     0.0000     0.0000 </r>
        <r>   -23.8457     0.0000     0.0000     0.0000 </r>
        <r>   -23.7438     0.0000     0.0000     0.0000 </r>
        <r>   -23.6418     0.0000     0.0000     0.0000 </r>
        <r>   -23.5399     0.0000     0.0000     0.0000 </r>
        <r>   -23.4379     0.0000     0.0000     0.0000 </r>
        <r>   -23.3360     0.0000     0.0000     0.0000 </r>
        <r>   -23.2340     0.0000     0.0000     0.0000 </r>
        <r>   -23.1321     0.0000     0.0000     0.0000 </r>
        <r>   -23.0302     0.0000     0.0000     0.0000 </r>
        <r>   -22.9282     0.0000     0.0000     0.0000 </r>
        <r>   -22.8263     0.0000     0.0000     0.0000 </r>
        <r>   -22.7243     0.0000     0.0000     0.0000 </r>
        <r>   -22.6224     0.0000     0.0000     0.0000 </r>
        <r>   -22.5204     0.0000     0.0000     0.0000 </r>
        <r>   -22.4185     0.0000     0.0000     0.0000 </r>
        <r>   -22.3166     0.0000     0.0000     0.0000 </r>
        <r>   -22.2146     0.0000     0.0000     0.0000 </r>
        <r>   -22.1127     0.0000     0.0000     0.0000 </r>
        <r>   -22.0107     0.0000     0.0000     0.0000 </r>
        <r>   -21.9088     0.0000     0.0000     0.0000 </r>
        <r>   -21.8068     0.0000     0.0000     0.0000 </r>
        <r>   -21.7049     0.0000     0.0000     0.0000 </r>
        <r>   -21.6030     0.0000     0.0000     0.0000 </r>
        <r>   -21.5010     0.0000     0.0000     0.0000 </r>
        <r>   -21.3991     0.0000     0.0000     0.0000 </r>
        <r>   -21.2971     0.0000     0.0000     0.0000 </r>
        <r>   -21.1952     0.0000     0.0000     0.0000 </r>
        <r>   -21.0932     0.0000     0.0000     0.0000 </r>
        <r>   -20.9913     0.0000     0.0000     0.0000 </r>
        <r>   -20.8894     0.0000     0.0000     0.0000 </r>
        <r>   -20.7874     0.0000     0.0000     0.0000 </r>
        <r>   -20.6855     0.0000     0.0000     0.0000 </r>
        <r>   -20.5835     0.0000     0.0000     0.0000 </r>
        <r>   -20.4816     0.0000     0.0000     0.0000 </r>
        <r>   -20.3797     0.0000     0.0000     0.0000 </r>
        <r>   -20.2777     0.0000     0.0000     0.0000 </r>
        <r>   -20.1758     0.0000     0.0000     0.0000 </r>
        <r>   -20.0738     0.0000     0.0000     0.0000 </r>
        <r>   -19.9719     0.0000     0.0000     0.0000 </r>
        <r>   -19.8699     0.0000     0.0000     0.0000 </r>
        <r>   -19.7680     0.0000     0.0000     0.0000 </r>
        <r>   -19.6661     0.0000     0.0000     0.0000 </r>
        <r>   -19.5641     0.0000     0.0000     0.0000 </r>
        <r>   -19.4622     0.0000     0.0000     0.0000 </r>
        <r>   -19.3602     0.0000     0.0000     0.0000 </r>
        <r>   -19.2583     0.0000     0.0000     0.0000 </r>
        <r>   -19.1563     0.0000     0.0000     0.0000 </r>
        <r>   -19.0544     0.0000     0.0000     0.0000 </r>
        <r>   -18.9525     0.0000     0.0000     0.0000 </r>
        <r>   -18.8505     0.0000     0.0000     0.0000 </r>
        <r>   -18.7486     0.0000     0.0000     0.0000 </r>
        <r>   -18.6466     0.0000     0.0000     0.0000 </r>
        <r>   -18.5447     0.0000     0.0000     0.0000 </r>
        <r>   -18.4427     0.0000     0.0000     0.0000 </r>
        <r>   -18.3408     0.0000     0.0000     0.0000 </r>
        <r>   -18.2389     0.0000     0.0000     0.0000 </r>
        <r>   -18.1369     0.0000     0.0000     0.0000 </r>
        <r>   -18.0350     0.0000     0.0000     0.0000 </r>
        <r>   -17.9330     0.0000     0.0000     0.0000 </r>
        <r>   -17.8311     0.0000     0.0000     0.0000 </r>
        <r>   -17.7291     0.0000     0.0000     0.0000 </r>
        <r>   -17.6272     0.0000     0.0000     0.0000 </r>
        <r>   -17.5253     0.0000     0.0000     0.0000 </r>
        <r>   -17.4233     0.0000     0.0000     0.0000 </r>
        <r>   -17.3214     0.0000     0.0000     0.0000 </r>
        <r>   -17.2194     0.0000     0.0000     0.0000 </r>
        <r>   -17.1175     0.0000     0.0000     0.0000 </r>
        <r>   -17.0156     0.0000     0.0000     0.0000 </r>
        <r>   -16.9136     0.0000     0.0000     0.0000 </r>
        <r>   -16.8117     0.0000     0.0000     0.0000 </r>
        <r>   -16.7097     0.0000     0.0000     0.0000 </r>
        <r>   -16.6078     0.0000     0.0000     0.0000 </r>
        <r>   -16.5058     0.0000     0.0000     0.0000 </r>
        <r>   -16.4039     0.0000     0.0000     0.0000 </r>
        <r>   -16.3020     0.0000     0.0000     0.0000 </r>
        <r>   -16.2000     0.0000     0.0000     0.0000 </r>
        <r>   -16.0981     0.0000     0.0000     0.0000 </r>
        <r>   -15.9961     0.0000     0.0000     0.0000 </r>
        <r>   -15.8942     0.0000     0.0000     0.0000 </r>
        <r>   -15.7922     0.0000     0.0000     0.0000 </r>
        <r>   -15.6903     0.0000     0.0000     0.0000 </r>
        <r>   -15.5884     0.0000     0.0000     0.0000 </r>
        <r>   -15.4864     0.0000     0.0000     0.0000 </r>
        <r>   -15.3845     0.0000     0.0000     0.0000 </r>
        <r>   -15.2825     0.0000     0.0000     0.0000 </r>
        <r>   -15.1806     0.0000     0.0000     0.0000 </r>
        <r>   -15.0786     0.0000     0.0000     0.0000 </r>
        <r>   -14.9767     0.0000     0.0000     0.0000 </r>
        <r>   -14.8748     0.0000     0.0000     0.0000 </r>
        <r>   -14.7728     0.0000     0.0000     0.0000 </r>
        <r>   -14.6709     0.0000     0.0000     0.0000 </r>
        <r>   -14.5689     0.0000     0.0000     0.0000 </r>
        <r>   -14.4670     0.0000     0.0000     0.0000 </r>
        <r>   -14.3650     0.0000     0.0000     0.0000 </r>
        <r>   -14.2631     0.0000     0.0000     0.0000 </r>
        <r>   -14.1612     0.0000     0.0000     0.0000 </r>
        <r>   -14.0592     0.0000     0.0000     0.0000 </r>
        <r>   -13.9573     0.0000     0.0000     0.0000 </r>
        <r>   -13.8553     0.0000     0.0000     0.0000 </r>
        <r>   -13.7534     0.0000     0.0000     0.0000 </r>
        <r>   -13.6515     0.0000     0.0000     0.0000 </r>
        <r>   -13.5495     0.0000     0.0000     0.0000 </r>
        <r>   -13.4476     0.0000     0.0000     0.0000 </r>
        <r>   -13.3456     0.0000     0.0000     0.0000 </r>
        <r>   -13.2437     0.0000     0.0000     0.0000 </r>
        <r>   -13.1417     0.0000     0.0000     0.0000 </r>
        <r>   -13.0398     0.1445     0.0160     0.0000 </r>
        <r>   -12.9379     2.7312     0.3022     0.0000 </r>
        <r>   -12.8359     0.3883     0.0430     0.0000 </r>
        <r>   -12.7340     0.0001     0.0000     0.0000 </r>
        <r>   -12.6320     0.0000     0.0000     0.0000 </r>
        <r>   -12.5301     0.0000     0.0000     0.0000 </r>
        <r>   -12.4281     0.0000     0.0000     0.0000 </r>
        <r>   -12.3262     0.0000     0.0000     0.0000 </r>
        <r>   -12.2243     0.0000     0.0000     0.0000 </r>
        <r>   -12.1223     0.0000     0.0000     0.0000 </r>
        <r>   -12.0204     0.0000     0.0000     0.0000 </r>
        <r>   -11.9184     0.0000     0.0000     0.0000 </r>
        <r>   -11.8165     0.0000     0.0000     0.0000 </r>
        <r>   -11.7145     0.0000     0.0000     0.0000 </r>
        <r>   -11.6126     0.0000     0.0000     0.0000 </r>
        <r>   -11.5107     0.0000     0.0000     0.0000 </r>
        <r>   -11.4087     0.0000     0.0000     0.0000 </r>
        <r>   -11.3068     0.0000     0.0000     0.0000 </r>
        <r>   -11.2048     0.0000     0.0000     0.0000 </r>
        <r>   -11.1029     0.0000     0.0000     0.0000 </r>
        <r>   -11.0009     0.0000     0.0000     0.0000 </r>
        <r>   -10.8990     0.0000     0.0000     0.0000 </r>
        <r>   -10.7971     0.0000     0.0000     0.0000 </r>
        <r>   -10.6951     0.0000     0.0000     0.0000 </r>
        <r>   -10.5932     0.0000     0.0000     0.0000 </r>
        <r>   -10.4912     0.0000     0.0000     0.0000 </r>
        <r>   -10.3893     0.0000     0.0000     0.0000 </r>
        <r>   -10.2874     0.0000     0.0000     0.0000 </r>
        <r>   -10.1854     0.0000     0.0000     0.0000 </r>
        <r>   -10.0835     0.0000     0.0000     0.0000 </r>
        <r>    -9.9815     0.0000     0.0000     0.0000 </r>
        <r>    -9.8796     0.0000     0.0000     0.0000 </r>
        <r>    -9.7776     0.0000     0.0000     0.0000 </r>
        <r>    -9.6757     0.0000     0.0000     0.0000 </r>
        <r>    -9.5738     0.0000     0.0000     0.0000 </r>
        <r>    -9.4718     0.0000     0.0000     0.0000 </r>
        <r>    -9.3699     0.0000     0.0000     0.0000 </r>
        <r>    -9.2679     0.0279     0.0044     0.0000 </r>
        <r>    -9.1660     0.7964     0.1244     0.0000 </r>
        <r>    -9.0640     0.1623     0.0254     0.0000 </r>
        <r>    -8.9621     0.0001     0.0000     0.0000 </r>
        <r>    -8.8602     0.0000     0.0000     0.0000 </r>
        <r>    -8.7582     0.0000     0.0000     0.0000 </r>
        <r>    -8.6563     0.0000     0.0000     0.0000 </r>
        <r>    -8.5543     0.0000     0.0000     0.0000 </r>
        <r>    -8.4524     0.0000     0.0000     0.0000 </r>
        <r>    -8.3504     0.0000     0.0000     0.0000 </r>
        <r>    -8.2485     0.0000     0.0000     0.0000 </r>
        <r>    -8.1466     0.0000     0.0000     0.0000 </r>
        <r>    -8.0446     0.0000     0.0000     0.0000 </r>
        <r>    -7.9427     0.0000     0.0000     0.0000 </r>
        <r>    -7.8407     0.0000     0.0000     0.0000 </r>
        <r>    -7.7388     0.0000     0.0000     0.0000 </r>
        <r>    -7.6368     0.0000     0.0000     0.0000 </r>
        <r>    -7.5349     0.0000     0.0000     0.0000 </r>
        <r>    -7.4330     0.0000     0.0000     0.0000 </r>
        <r>    -7.3310     0.0000     0.0000     0.0000 </r>
        <r>    -7.2291     0.0000     0.0005     0.0000 </r>
        <r>    -7.1271     0.0000     0.1160     0.0000 </r>
        <r>    -7.0252     0.0000     0.1058     0.0000 </r>
        <r>    -6.9233     0.0000     0.0004     0.0000 </r>
        <r>    -6.8213     0.0000     0.0000     0.0000 </r>
        <r>    -6.7194     0.0000     0.0000     0.0000 </r>
        <r>    -6.6174     0.0000     0.0000     0.0000 </r>
        <r>    -6.5155     0.0000     0.0000     0.0000 </r>
        <r>    -6.4135     0.0000     0.0000     0.0000 </r>
        <r>    -6.3116     0.0000     0.0000     0.0000 </r>
        <r>    -6.2097     0.0000     0.0000     0.0000 </r>
        <r>    -6.1077     0.0000     0.0000     0.0000 </r>
        <r>    -6.0058     0.0000     0.0000     0.0000 </r>
        <r>    -5.9038     0.0000     0.0000     0.0000 </r>
        <r>    -5.8019     0.0000     0.0000     0.0000 </r>
        <r>    -5.6999     0.0000     0.0000     0.0000 </r>
        <r>    -5.5980     0.0000     0.0000     0.0000 </r>
        <r>    -5.4961     0.0000     0.0000     0.0000 </r>
        <r>    -5.3941     0.0000     0.0000     0.0000 </r>
        <r>    -5.2922     0.0000     0.0000     0.0000 </r>
        <r>    -5.1902     0.0000     0.0000     0.0000 </r>
        <r>    -5.0883     0.0000     0.0000     0.0000 </r>
        <r>    -4.9863     0.0000     0.0000     0.0000 </r>
        <r>    -4.8844     0.0000     0.0000     0.0000 </r>
        <r>    -4.7825     0.0000     0.0000     0.0000 </r>
        <r>    -4.6805     0.0000     0.0000     0.0000 </r>
        <r>    -4.5786     0.0000     0.0000     0.0000 </r>
        <r>    -4.4766     0.0000     0.0000     0.0000 </r>
        <r>    -4.3747     0.0000     0.0000     0.0000 </r>
        <r>    -4.2727     0.0000     0.0000     0.0000 </r>
        <r>    -4.1708     0.0000     0.0000     0.0000 </r>
        <r>    -4.0689     0.0000     0.0000     0.0000 </r>
        <r>    -3.9669     0.0000     0.0000     0.0000 </r>
        <r>    -3.8650     0.0000     0.0000     0.0000 </r>
        <r>    -3.7630     0.0000     0.0000     0.0000 </r>
        <r>    -3.6611     0.0000     0.0000     0.0000 </r>
        <r>    -3.5592     0.0000     0.0000     0.0000 </r>
        <r>    -3.4572     0.0000     0.0000     0.0000 </r>
        <r>    -3.3553     0.0000     0.0000     0.0000 </r>
        <r>    -3.2533     0.0000     0.0000     0.0000 </r>
        <r>    -3.1514     0.0000     0.0000     0.0000 </r>
        <r>    -3.0494     0.0000     0.0000     0.0000 </r>
        <r>    -2.9475     0.0000     0.0000     0.0000 </r>
        <r>    -2.8456     0.0000     0.0000     0.0000 </r>
        <r>    -2.7436     0.0000     0.0000     0.0000 </r>
        <r>    -2.6417     0.0000     0.0000     0.0000 </r>
        <r>    -2.5397     0.0000     0.0000     0.0000 </r>
        <r>    -2.4378     0.0000     0.0000     0.0000 </r>
        <r>    -2.3358     0.0000     0.0000     0.0000 </r>
        <r>    -2.2339     0.0000     0.0000     0.0000 </r>
        <r>    -2.1320     0.0000     0.0000     0.0000 </r>
        <r>    -2.0300     0.0000     0.0000     0.0000 </r>
        <r>    -1.9281     0.0000     0.0000     0.0000 </r>
        <r>    -1.8261     0.0000     0.0000     0.0000 </r>
        <r>    -1.7242     0.0000     0.0000     0.0000 </r>
        <r>    -1.6222     0.0000     0.0000     0.0000 </r>
        <r>    -1.5203     0.0000     0.0000     0.0000 </r>
        <r>    -1.4184     0.0000     0.0000     0.0000 </r>
        <r>    -1.3164     0.0000     0.0000     0.0000 </r>
        <r>    -1.2145     0.0000     0.0000     0.0000 </r>
        <r>    -1.1125     0.0000     0.0000     0.0000 </r>
        <r>    -1.0106     0.0174     0.0402     0.0000 </r>
        <r>    -0.9086     0.0600     0.1384     0.0000 </r>
        <r>    -0.8067     0.0014     0.0031     0.0000 </r>
        <r>    -0.7048     0.0000     0.0000     0.0000 </r>
        <r>    -0.6028     0.0000     0.0000     0.0000 </r>
        <r>    -0.5009     0.0000     0.0000     0.0000 </r>
        <r>    -0.3989     0.0000     0.0000     0.0000 </r>
        <r>    -0.2970     0.0000     0.0000     0.0000 </r>
        <r>    -0.1951     0.0000     0.0000     0.0000 </r>
        <r>    -0.0931     0.0000     0.0000     0.0000 </r>
        <r>     0.0088     0.0000     0.0000     0.0000 </r>
        <r>     0.1108     0.0000     0.0000     0.0000 </r>
        <r>     0.2127     0.0000     0.0000     0.0000 </r>
        <r>     0.3147     0.0000     0.0000     0.0000 </r>
        <r>     0.4166     0.0005     0.0010     0.0000 </r>
        <r>     0.5185     0.0339     0.0675     0.0000 </r>
        <r>     0.6205     0.0131     0.0261     0.0000 </r>
        <r>     0.7224     0.0066     0.0424     0.0000 </r>
        <r>     0.8244     0.0149     0.0954     0.0000 </r>
        <r>     0.9263     0.0002     0.0012     0.0000 </r>
        <r>     1.0283     0.0000     0.0000     0.0000 </r>
        <r>     1.1302     0.0064     0.0013     0.0000 </r>
        <r>     1.2321     0.0150     0.0032     0.0000 </r>
        <r>     1.3341     0.0010     0.0011     0.0000 </r>
        <r>     1.4360     0.0022     0.0006     0.0000 </r>
        <r>     1.5380     0.0001     0.0000     0.0000 </r>
        <r>     1.6399     0.0000     0.0000     0.0000 </r>
        <r>     1.7419     0.0000     0.0000     0.0000 </r>
        <r>     1.8438     0.0000     0.0000     0.0000 </r>
        <r>     1.9457     0.0001     0.0001     0.0000 </r>
        <r>     2.0477     0.0383     0.0417     0.0000 </r>
        <r>     2.1496     0.0550     0.0599     0.0000 </r>
        <r>     2.2516     0.0121     0.0186     0.0000 </r>
        <r>     2.3535     0.0369     0.0570     0.0000 </r>
        <r>     2.4555     0.0007     0.0016     0.0000 </r>
        <r>     2.5574     0.0033     0.0093     0.0000 </r>
        <r>     2.6593     0.0183     0.0080     0.0000 </r>
        <r>     2.7613     0.0007     0.0002     0.0000 </r>
        <r>     2.8632     0.0000     0.0000     0.0000 </r>
        <r>     2.9652     0.0000     0.0000     0.0000 </r>
        <r>     3.0671     0.0000     0.0000     0.0000 </r>
        <r>     3.1690     0.0000     0.0000     0.0000 </r>
        <r>     3.2710     0.0000     0.0000     0.0000 </r>
        <r>     3.3729     0.0000     0.0000     0.0000 </r>
        <r>     3.4749     0.0000     0.0000     0.0000 </r>
        <r>     3.5768     0.0000     0.0000     0.0000 </r>
        <r>     3.6788     0.0000     0.0000     0.0000 </r>
        <r>     3.7807     0.0000     0.0000     0.0000 </r>
        <r>     3.8826     0.0000     0.0000     0.0000 </r>
        <r>     3.9846     0.0000     0.0000     0.0000 </r>
       </set>
      </set>
     </set>
    </array>
   </partial>
  </dos>
  <projected>
   <eigenvalues>
    <array>
     <dimension dim="1">band</dimension>
     <dimension dim="2">kpoint</dimension>
     <dimension dim="3">spin</dimension>
     <field>eigene</field>
     <field>occ</field>
     <set>
      <set comment="spin 1">
       <set comment="kpoint 1">
        <r>  -25.2080    1.0000 </r>
        <r>  -12.9796    1.0000 </r>
        <r>   -9.2005    1.0000 </r>
        <r>   -7.1292    1.0000 </r>
        <r>   -0.9834    0.0000 </r>
        <r>    0.4975    0.0000 </r>
        <r>    0.7405    0.0000 </r>
        <r>    1.1045    0.0000 </r>
        <r>    1.1490    0.0000 </r>
        <r>    1.3019    0.0000 </r>
        <r>    1.3652    0.0000 </r>
        <r>    2.0558    0.0000 </r>
        <r>    2.2768    0.0000 </r>
        <r>    2.4861    0.0000 </r>
        <r>    2.5294    0.0000 </r>
        <r>    2.5945    0.0000 </r>
       </set>
      </set>
     </set>
    </array>
   </eigenvalues>
   <array>
    <dimension dim="1">ion</dimension>
    <dimension dim="2">band</dimension>
    <dimension dim="3">kpoint</dimension>
    <dimension dim="4">spin</dimension>
    <field>  s</field>
    <field>  p</field>
    <field>  d</field>
    <set>
     <set comment="spin1">
      <set comment="kpoint 1">
       <set comment="band 1">
        <r>  0.7144  0.0388  0.0000 </r>
        <r>  0.0974  0.0197  0.0000 </r>
        <r>  0.0974  0.0197  0.0000 </r>
       </set>
       <set comment="band 2">
        <r>  0.0000  0.5443  0.0000 </r>
        <r>  0.1664  0.0184  0.0000 </r>
        <r>  0.1664  0.0184  0.0000 </r>
       </set>
       <set comment="band 3">
        <r>  0.0818  0.5547  0.0000 </r>
        <r>  0.0503  0.0079  0.0000 </r>
        <r>  0.0503  0.0079  0.0000 </r>
       </set>
       <set comment="band 4">
        <r>  0.0000  0.6702  0.0000 </r>
        <r>  0.0000  0.0113  0.0000 </r>
        <r>  0.0000  0.0113  0.0000 </r>
       </set>
       <set comment="band 5">
        <r>  0.0249  0.0306  0.0000 </r>
        <r>  0.0040  0.0093  0.0000 </r>
        <r>  0.0040  0.0093  0.0000 </r>
       </set>
       <set comment="band 6">
        <r>  0.0084  0.0214  0.0000 </r>
        <r>  0.0024  0.0048  0.0000 </r>
        <r>  0.0024  0.0048  0.0000 </r>
       </set>
       <set comment="band 7">
        <r>  0.0000  0.0527  0.0000 </r>
        <r>  0.0011  0.0071  0.0000 </r>
        <r>  0.0011  0.0071  0.0000 </r>
       </set>
       <set comment="band 8">
        <r>  0.0000  0.0183  0.0000 </r>
        <r>  0.0000  0.0000  0.0000 </r>
        <r>  0.0000  0.0000  0.0000 </r>
       </set>
       <set comment="band 9">
        <r>  0.0045  0.0034  0.0000 </r>
        <r>  0.0011  0.0002  0.0000 </r>
        <r>  0.0011  0.0002  0.0000 </r>
       </set>
       <set comment="band 10">
        <r>  0.0008  0.0004  0.0000 </r>
        <r>  0.0000  0.0001  0.0000 </r>
        <r>  0.0000  0.0001  0.0000 </r>
       </set>
       <set comment="band 11">
        <r>  0.0006  0.0007  0.0000 </r>
        <r>  0.0001  0.0000  0.0000 </r>
        <r>  0.0001  0.0000  0.0000 </r>
       </set>
       <set comment="band 12">
        <r>  0.0000  0.0322  0.0000 </r>
        <r>  0.0048  0.0052  0.0000 </r>
        <r>  0.0048  0.0052  0.0000 </r>
       </set>
       <set comment="band 13">
        <r>  0.0042  0.0218  0.0000 </r>
        <r>  0.0025  0.0039  0.0000 </r>
        <r>  0.0025  0.0039  0.0000 </r>
       </set>
       <set comment="band 14">
        <r>  0.0000  0.0117  0.0000 </r>
        <r>  0.0000  0.0001  0.0000 </r>
        <r>  0.0000  0.0001  0.0000 </r>
       </set>
       <set comment="band 15">
        <r>  0.0000  0.0000  0.0000 </r>
        <r>  0.0000  0.0005  0.0000 </r>
        <r>  0.0000  0.0005  0.0000 </r>
       </set>
       <set comment="band 16">
        <r>  0.0000  0.0029  0.0000 </r>
        <r>  0.0011  0.0004  0.0000 </r>
        <r>  0.0011  0.0004  0.0000 </r>
       </set>
      </set>
     </set>
    </set>
   </array>
  </projected>
 </calculation>
 <structure name="finalpos" >
  <crystal>
   <varray name="basis" >
    <v>      10.00000000       0.00000000       0.00000000 </v>
    <v>       0.00000000      10.00000000       0.00000000 </v>
    <v>       0.00000000       0.00000000      10.00000000 </v>
   </varray>
   <i name="volume">   1000.00000000 </i>
   <varray name="rec_basis" >
    <v>       0.10000000       0.00000000       0.00000000 </v>
    <v>       0.00000000       0.10000000       0.00000000 </v>
    <v>       0.00000000       0.00000000       0.10000000 </v>
   </varray>
  </crystal>
  <varray name="positions" >
   <v>       0.50000000       0.50000000       0.52990714 </v>
   <v>       0.50000000       0.57671769       0.47013871 </v>
   <v>       0.50000000       0.42328231       0.47013871 </v>
  </varray>
 </structure>
</modeling>
